6
Lattice="12.0 0.0 0.0 0.0 12.0 0.0 0.0 0.0 12.0" Properties=species:S:1:pos:R:3:forces:R:3:magmoms:R:1 energy=-22.24596364849928 dipole="-0.005582003439365904 0.005411210954167048 -0.5709006181470309" magmom=0.0 free_energy=-22.24596364849928 pbc="F F F"
Li       4.76788648       6.68500414       5.00572809      -0.01290699      -0.01133080       0.00763398       0.00000000
Li       7.23450542       5.32173052       4.96958859       0.01277421       0.01116323       0.00617366       0.00000000
S        5.95910666       7.04062913       7.06519710       0.00071177      -0.02269412       0.02696197       0.00000000
S        6.08373419       4.92675224       7.04392555      -0.00122638       0.02244720       0.02746714       0.00000000
S        5.12888305       4.33811305       5.27716952      -0.02034729       0.00921251      -0.03312205       0.00000000
S        6.87883580       7.66308832       5.29143924       0.02097758      -0.00881680      -0.03376808       0.00000000
