
  ___ ___ ___ _ _ _  
 |   |   |_  | | | | 
 | | | | | . | | | | 
 |__ |  _|___|_____|  22.1.0
 |___|_|             

User:   ameerracle@ANDesktopMint
Date:   Sat Feb 25 17:57:22 2023
Arch:   x86_64
Pid:    66407
Python: 3.10.6
gpaw:   /usr/lib/python3/dist-packages/gpaw
_gpaw:  /usr/lib/python3/dist-packages/_gpaw.cpython-310-x86_64-linux-gnu.so
ase:    /usr/lib/python3/dist-packages/ase (version 3.22.1)
numpy:  /home/ameerracle/.local/lib/python3.10/site-packages/numpy (version 1.23.5)
scipy:  /home/ameerracle/.local/lib/python3.10/site-packages/scipy (version 1.10.0)
libxc:  5.1.7
units:  Angstrom and eV
cores: 1
OpenMP: False
OMP_NUM_THREADS: 1

Input parameters:
  kpts: {size: (2, 2, 1)}
  mode: {ecut: 400.0,
         name: pw}
  xc: PBE

System changes: positions, numbers, cell, pbc, initial_charges, initial_magmoms 

Initialize ...

Ni-setup:
  name: Nickel
  id: 0d9f38a9d6e76a2886f07bb4381f212b
  Z: 28.0
  valence: 16
  core: 12
  charge: 0.0
  file: /usr/share/gpaw-setups/Ni.PBE.gz
  compensation charges: gauss, rc=0.36, lmax=2
  cutoffs: 2.14(filt), 1.98(core),
  valence states:
                energy  radius
    4s(2.00)    -5.642   1.164
    3p(6.00)   -71.394   1.207
    4p(0.00)    -1.226   1.207
    3d(8.00)    -8.875   1.138
    *s          21.570   1.164
    *d          18.337   1.138

  Using partial waves for Ni as LCAO basis

Reference energy: -661887.975157

Spin-paired calculation

Convergence criteria:
 Maximum [total energy] change in last 3 cyles: 0.0005 eV / electron
 Maximum integral of absolute [dens]ity change: 0.0001 electrons / valence electron
 Maximum integral of absolute [eigenst]ate change: 4e-08 eV^2 / valence electron
 Maximum number of scf [iter]ations: 333
 (Square brackets indicate name in SCF output, whereas a 'c' in
 the SCF output indicates the quantity has converged.)

Symmetries present (total): 24

  ( 1  0  0)  ( 1  0  0)  ( 1  0  0)  ( 1  0  0)  ( 1 -1  0)  ( 1 -1  0)
  ( 1 -1  0)  ( 1 -1  0)  ( 0  1  0)  ( 0  1  0)  ( 1  0  0)  ( 1  0  0)
  ( 0  0  1)  ( 0  0 -1)  ( 0  0  1)  ( 0  0 -1)  ( 0  0  1)  ( 0  0 -1)

  ( 1 -1  0)  ( 1 -1  0)  ( 0  1  0)  ( 0  1  0)  ( 0  1  0)  ( 0  1  0)
  ( 0 -1  0)  ( 0 -1  0)  ( 1  0  0)  ( 1  0  0)  (-1  1  0)  (-1  1  0)
  ( 0  0  1)  ( 0  0 -1)  ( 0  0  1)  ( 0  0 -1)  ( 0  0  1)  ( 0  0 -1)

  ( 0 -1  0)  ( 0 -1  0)  ( 0 -1  0)  ( 0 -1  0)  (-1  1  0)  (-1  1  0)
  ( 1 -1  0)  ( 1 -1  0)  (-1  0  0)  (-1  0  0)  ( 0  1  0)  ( 0  1  0)
  ( 0  0  1)  ( 0  0 -1)  ( 0  0  1)  ( 0  0 -1)  ( 0  0  1)  ( 0  0 -1)

  (-1  1  0)  (-1  1  0)  (-1  0  0)  (-1  0  0)  (-1  0  0)  (-1  0  0)
  (-1  0  0)  (-1  0  0)  ( 0 -1  0)  ( 0 -1  0)  (-1  1  0)  (-1  1  0)
  ( 0  0  1)  ( 0  0 -1)  ( 0  0  1)  ( 0  0 -1)  ( 0  0  1)  ( 0  0 -1)
Note: your k-points are not as symmetric as your crystal!

4 k-points: 2 x 2 x 1 Monkhorst-Pack grid
2 k-points in the irreducible part of the Brillouin zone
       k-points in crystal coordinates                weights
   0:     0.25000000   -0.25000000    0.00000000          2/4
   1:     0.25000000    0.25000000    0.00000000          2/4

Wave functions: Plane wave expansion
  Cutoff energy: 400.000 eV
  Number of coefficients (min, max): 31174, 31222
  Pulay-stress correction: 0.000000 eV/Ang^3 (de/decut=0.000000)
  Using FFTW library
  ScaLapack parameters: grid=1x1, blocksize=None
  Wavefunction extrapolation:
    Improved wavefunction reuse through dual PAW basis 

Occupation numbers: Fermi-Dirac: width=0.1000 eV
 

Eigensolver
   Davidson(niter=2) 

Densities:
  Coarse grid: 48*48*96 grid
  Fine grid: 96*96*192 grid
  Total Charge: 0.000000 

Density mixing:
  Method: separate
  Backend: pulay
  Linear mixing parameter: 0.05
  Mixing with 5 old densities
  Damping of long wave oscillations: 50 

Hamiltonian:
  XC and Coulomb potentials evaluated on a 96*96*192 grid
  Using the PBE Exchange-Correlation functional
  External potential:
    NoExternalPotential
 

XC parameters: PBE with 2 nearest neighbor stencil

Memory estimate:
  Process memory now: 219.64 MiB
  Calculator: 373.02 MiB
    Density: 93.72 MiB
      Arrays: 43.88 MiB
      Localized functions: 32.97 MiB
      Mixer: 16.88 MiB
    Hamiltonian: 29.36 MiB
      Arrays: 28.69 MiB
      XC: 0.00 MiB
      Poisson: 0.00 MiB
      vbar: 0.67 MiB
    Wavefunctions: 249.93 MiB
      Arrays psit_nG: 150.55 MiB
      Eigensolver: 81.47 MiB
      Projections: 1.39 MiB
      Projectors: 7.14 MiB
      PW-descriptor: 9.39 MiB

Total number of cores used: 1

Number of atoms: 16
Number of atomic orbitals: 192
Number of bands in calculation: 158
Number of valence electrons: 256
Bands to converge: occupied

... initialized

Initializing position-dependent things.

Density initialized from atomic densities
Creating initial wave functions:
  158 bands from LCAO basis set

                                               
                                               
                                               
                                               
                    Ni    Ni    Ni    Ni       
                Ni    Ni    Ni    Ni           
           Ni    Ni    Ni    Ni                
       Ni    Ni    Ni    Ni                    
                                               
                                               
                                               
                                               

Positions:
   0 Ni     0.000000    0.000000   10.000000    ( 0.0000,  0.0000,  0.0000)
   1 Ni     2.489016    0.000000   10.000000    ( 0.0000,  0.0000,  0.0000)
   2 Ni     4.978032    0.000000   10.000000    ( 0.0000,  0.0000,  0.0000)
   3 Ni     7.467048    0.000000   10.000000    ( 0.0000,  0.0000,  0.0000)
   4 Ni     1.244508    2.155551   10.000000    ( 0.0000,  0.0000,  0.0000)
   5 Ni     3.733524    2.155551   10.000000    ( 0.0000,  0.0000,  0.0000)
   6 Ni     6.222540    2.155551   10.000000    ( 0.0000,  0.0000,  0.0000)
   7 Ni     8.711556    2.155551   10.000000    ( 0.0000,  0.0000,  0.0000)
   8 Ni     2.489016    4.311102   10.000000    ( 0.0000,  0.0000,  0.0000)
   9 Ni     4.978032    4.311102   10.000000    ( 0.0000,  0.0000,  0.0000)
  10 Ni     7.467048    4.311102   10.000000    ( 0.0000,  0.0000,  0.0000)
  11 Ni     9.956063    4.311102   10.000000    ( 0.0000,  0.0000,  0.0000)
  12 Ni     3.733524    6.466653   10.000000    ( 0.0000,  0.0000,  0.0000)
  13 Ni     6.222540    6.466653   10.000000    ( 0.0000,  0.0000,  0.0000)
  14 Ni     8.711556    6.466653   10.000000    ( 0.0000,  0.0000,  0.0000)
  15 Ni    11.200571    6.466653   10.000000    ( 0.0000,  0.0000,  0.0000)

Unit cell:
           periodic     x           y           z      points  spacing
  1. axis:    yes    9.956063    0.000000    0.000000    48     0.1796
  2. axis:    yes    4.978032    8.622204    0.000000    48     0.1796
  3. axis:    no     0.000000    0.000000   20.000000    96     0.2083

  Lengths:   9.956063   9.956063  20.000000
  Angles:   90.000000  90.000000  60.000000

Effective grid spacing dv^(1/3) = 0.1980

     iter     time        total  log10-change:
                         energy  eigst   dens
iter:   1 17:57:46  -101.410640
iter:   2 17:57:57   -97.524453  -0.41  -1.37
iter:   3 17:58:08   -94.055127  -0.69  -1.51
iter:   4 17:58:20   -93.956431  -0.90  -1.72
iter:   5 17:58:31   -93.469235  -1.32  -1.90
iter:   6 17:58:42   -93.763228  -1.49  -2.30
iter:   7 17:58:54   -93.441050  -1.79  -2.16
iter:   8 17:59:05   -93.841997  -1.85  -2.51
iter:   9 17:59:16   -93.491476  -1.69  -2.09
iter:  10 17:59:28   -93.419975  -2.30  -2.39
iter:  11 17:59:39   -93.419849c -2.52  -3.23
iter:  12 17:59:50   -93.419792c -2.70  -3.90
iter:  13 18:00:01   -93.419821c -2.85  -3.99
iter:  14 18:00:13   -93.419997c -2.99  -4.03c
iter:  15 18:00:24   -93.419670c -3.13  -4.10c
iter:  16 18:00:35   -93.419933c -3.27  -4.05c
iter:  17 18:00:47   -93.419385c -3.40  -4.19c
iter:  18 18:00:58   -93.419459c -3.55  -4.36c
iter:  19 18:01:09   -93.419733c -3.67  -4.40c
iter:  20 18:01:21   -93.419635c -3.80  -4.62c
iter:  21 18:01:32   -93.419693c -3.92  -4.58c
iter:  22 18:01:43   -93.419725c -4.05  -4.60c
iter:  23 18:01:54   -93.419726c -4.18  -4.64c
iter:  24 18:02:05   -93.419807c -4.31  -4.67c
iter:  25 18:02:16   -93.419817c -4.43  -4.86c
iter:  26 18:02:28   -93.419837c -4.55  -4.96c
iter:  27 18:02:39   -93.419833c -4.68  -4.98c
iter:  28 18:02:50   -93.419827c -4.80  -5.08c
iter:  29 18:03:01   -93.419835c -4.92  -5.16c
iter:  30 18:03:12   -93.419828c -5.05  -5.18c
iter:  31 18:03:24   -93.419814c -5.17  -5.25c
iter:  32 18:03:35   -93.419806c -5.29  -5.32c
iter:  33 18:03:46   -93.419795c -5.41  -5.39c
iter:  34 18:03:58   -93.419783c -5.54  -5.45c
iter:  35 18:04:09   -93.419782c -5.66  -5.61c
iter:  36 18:04:20   -93.419776c -5.78  -5.65c
iter:  37 18:04:31   -93.419775c -5.91  -5.77c
iter:  38 18:04:42   -93.419776c -6.03  -5.89c
iter:  39 18:04:54   -93.419779c -6.15  -5.95c
iter:  40 18:05:05   -93.419779c -6.28  -6.05c
iter:  41 18:05:16   -93.419783c -6.40  -6.06c
iter:  42 18:05:27   -93.419785c -6.53  -6.14c
iter:  43 18:05:39   -93.419789c -6.65  -6.19c
iter:  44 18:05:50   -93.419791c -6.78  -6.21c
iter:  45 18:06:01   -93.419793c -6.90  -6.22c
iter:  46 18:06:13   -93.419793c -7.03  -6.23c
iter:  47 18:06:24   -93.419795c -7.16  -6.22c
iter:  48 18:06:35   -93.419795c -7.29  -6.28c
iter:  49 18:06:46   -93.419796c -7.41c -6.31c

Converged after 49 iterations.

Dipole moment: (0.000000, 0.000000, 0.000000) |e|*Ang

Energy contributions relative to reference atoms: (reference = -661887.975157)

Kinetic:        +54.051929
Potential:      -38.523881
External:        +0.000000
XC:            -110.224097
Entropy (-ST):   -2.244691
Local:           +2.398599
--------------------------
Free energy:    -94.542142
Extrapolated:   -93.419796

Showing all kpts
 Kpt  Band  Eigenvalues  Occupancy
  0   126     -4.27287    1.61253
  0   127     -4.27287    1.61253
  0   128     -4.19506    1.31306
  0   129     -4.19506    1.31305

  1   126     -4.24025    1.50043
  1   127     -4.23970    1.49838
  1   128     -4.17517    1.22079
  1   129     -4.17517    1.22078


Fermi level: -4.13027

Gap: 0.052 eV
Transition (v -> c):
  (s=0, k=1, n=129, [0.25, 0.25, 0.00]) -> (s=0, k=1, n=130, [0.25, 0.25, 0.00])

Forces in eV/Ang:
  0 Ni    0.00000    0.00000    0.00000
  1 Ni    0.00000   -0.00000    0.00000
  2 Ni    0.00000    0.00000    0.00000
  3 Ni   -0.00000    0.00000    0.00000
  4 Ni    0.00000    0.00000    0.00000
  5 Ni    0.00000    0.00000    0.00000
  6 Ni   -0.00000    0.00000    0.00000
  7 Ni   -0.00000    0.00000    0.00000
  8 Ni    0.00000   -0.00000    0.00000
  9 Ni   -0.00000   -0.00000    0.00000
 10 Ni   -0.00000    0.00000    0.00000
 11 Ni    0.00000    0.00000    0.00000
 12 Ni   -0.00000   -0.00000    0.00000
 13 Ni    0.00000   -0.00000    0.00000
 14 Ni    0.00000   -0.00000    0.00000
 15 Ni   -0.00000   -0.00000    0.00000

Timing:                              incl.     excl.
-----------------------------------------------------------
Forces:                              2.340     2.340   0.4% |
Hamiltonian:                         0.867     0.003   0.0% |
 Atomic:                             0.384     0.001   0.0% |
  XC Correction:                     0.383     0.383   0.1% |
 Calculate atomic Hamiltonians:      0.184     0.184   0.0% |
 Communicate:                        0.000     0.000   0.0% |
 Initialize Hamiltonian:             0.001     0.001   0.0% |
 Poisson:                            0.004     0.004   0.0% |
 XC 3D grid:                         0.292     0.292   0.1% |
LCAO initialization:                 9.768     0.037   0.0% |
 LCAO eigensolver:                   0.679     0.000   0.0% |
  Calculate projections:             0.004     0.004   0.0% |
  DenseAtomicCorrection:             0.006     0.006   0.0% |
  Distribute overlap matrix:         0.000     0.000   0.0% |
  Orbital Layouts:                   0.049     0.049   0.0% |
  Potential matrix:                  0.612     0.612   0.1% |
  Sum over cells:                    0.007     0.007   0.0% |
 LCAO to grid:                       8.855     8.855   1.6% ||
 Set positions (LCAO WFS):           0.196     0.025   0.0% |
  Basic WFS set positions:           0.007     0.007   0.0% |
  Basis functions set positions:     0.000     0.000   0.0% |
  P tci:                             0.118     0.118   0.0% |
  ST tci:                            0.039     0.039   0.0% |
  mktci:                             0.007     0.007   0.0% |
PWDescriptor:                        0.277     0.277   0.0% |
SCF-cycle:                         550.661     0.039   0.0% |
 Davidson:                         470.019    98.117  17.3% |------|
  Apply H:                          45.133    44.368   7.8% |--|
   HMM T:                            0.765     0.765   0.1% |
  Subspace diag:                    86.631     0.009   0.0% |
   calc_h_matrix:                   60.712    14.280   2.5% ||
    Apply H:                        46.432    45.649   8.1% |--|
     HMM T:                          0.783     0.783   0.1% |
   diagonalize:                      1.635     1.635   0.3% |
   rotate_psi:                      24.275    24.275   4.3% |-|
  calc. matrices:                  186.528    96.398  17.0% |------|
   Apply H:                         90.130    88.542  15.6% |-----|
    HMM T:                           1.588     1.588   0.3% |
  diagonalize:                       5.869     5.869   1.0% |
  rotate_psi:                       47.741    47.741   8.4% |--|
 Density:                           37.739     0.001   0.0% |
  Atomic density matrices:           0.283     0.283   0.0% |
  Mix:                              10.512    10.512   1.9% ||
  Multipole moments:                 0.012     0.012   0.0% |
  Pseudo density:                   26.931    22.055   3.9% |-|
   Symmetrize density:               4.876     4.876   0.9% |
 Hamiltonian:                       41.924     0.121   0.0% |
  Atomic:                           18.734     0.063   0.0% |
   XC Correction:                   18.671    18.671   3.3% ||
  Calculate atomic Hamiltonians:     8.776     8.776   1.6% ||
  Communicate:                       0.000     0.000   0.0% |
  Poisson:                           0.153     0.153   0.0% |
  XC 3D grid:                       14.140    14.140   2.5% ||
 Orthonormalize:                     0.940     0.000   0.0% |
  calc_s_matrix:                     0.151     0.151   0.0% |
  inverse-cholesky:                  0.083     0.083   0.0% |
  projections:                       0.420     0.420   0.1% |
  rotate_psi_s:                      0.284     0.284   0.1% |
Set symmetry:                        0.004     0.004   0.0% |
Other:                               2.300     2.300   0.4% |
-----------------------------------------------------------
Total:                                       566.217 100.0%

Memory usage: 912.21 MiB
Date: Sat Feb 25 18:06:49 2023
