
  ___ ___ ___ _ _ _  
 |   |   |_  | | | | 
 | | | | | . | | | | 
 |__ |  _|___|_____|  22.1.0
 |___|_|             

User:   ameerracle@ameer-Mint-B450-AORUS-PRO-WIFI
Date:   Mon Feb  6 19:21:35 2023
Arch:   x86_64
Pid:    14295
Python: 3.10.6
gpaw:   /usr/lib/python3/dist-packages/gpaw
_gpaw:  /usr/lib/python3/dist-packages/_gpaw.cpython-310-x86_64-linux-gnu.so
ase:    /usr/lib/python3/dist-packages/ase (version 3.22.1)
numpy:  /home/ameerracle/.local/lib/python3.10/site-packages/numpy (version 1.23.5)
scipy:  /home/ameerracle/.local/lib/python3.10/site-packages/scipy (version 1.10.0)
libxc:  5.1.7
units:  Angstrom and eV
cores: 1
OpenMP: False
OMP_NUM_THREADS: 1

Input parameters:
  kpts: [8 8 1]
  mode: {ecut: 400.0,
         name: pw}
  xc: PBE

System changes: positions, numbers, cell, pbc, initial_charges, initial_magmoms 

Initialize ...

Al-setup:
  name: Aluminium
  id: 0292cae29f5d6237e50f6abdd43a7bdd
  Z: 13.0
  valence: 3
  core: 10
  charge: 0.0
  file: /usr/share/gpaw-setups/Al.PBE.gz
  compensation charges: gauss, rc=0.34, lmax=2
  cutoffs: 1.91(filt), 2.36(core),
  valence states:
                energy  radius
    3s(2.00)    -7.753   1.085
    3p(1.00)    -2.712   1.085
    *s          19.459   1.085
    *p          24.499   1.085
    *d           0.000   1.085

  Using partial waves for Al as LCAO basis

Reference energy: -105654.772238

Spin-paired calculation

Convergence criteria:
 Maximum [total energy] change in last 3 cyles: 0.0005 eV / electron
 Maximum integral of absolute [dens]ity change: 0.0001 electrons / valence electron
 Maximum integral of absolute [eigenst]ate change: 4e-08 eV^2 / valence electron
 Maximum number of scf [iter]ations: 333
 (Square brackets indicate name in SCF output, whereas a 'c' in
 the SCF output indicates the quantity has converged.)

Symmetries present (total): 24

  ( 1  0  0)  ( 1  0  0)  ( 1  0  0)  ( 1  0  0)  ( 1 -1  0)  ( 1 -1  0)
  ( 1 -1  0)  ( 1 -1  0)  ( 0  1  0)  ( 0  1  0)  ( 1  0  0)  ( 1  0  0)
  ( 0  0  1)  ( 0  0 -1)  ( 0  0  1)  ( 0  0 -1)  ( 0  0  1)  ( 0  0 -1)

  ( 1 -1  0)  ( 1 -1  0)  ( 0  1  0)  ( 0  1  0)  ( 0  1  0)  ( 0  1  0)
  ( 0 -1  0)  ( 0 -1  0)  ( 1  0  0)  ( 1  0  0)  (-1  1  0)  (-1  1  0)
  ( 0  0  1)  ( 0  0 -1)  ( 0  0  1)  ( 0  0 -1)  ( 0  0  1)  ( 0  0 -1)

  ( 0 -1  0)  ( 0 -1  0)  ( 0 -1  0)  ( 0 -1  0)  (-1  1  0)  (-1  1  0)
  ( 1 -1  0)  ( 1 -1  0)  (-1  0  0)  (-1  0  0)  ( 0  1  0)  ( 0  1  0)
  ( 0  0  1)  ( 0  0 -1)  ( 0  0  1)  ( 0  0 -1)  ( 0  0  1)  ( 0  0 -1)

  (-1  1  0)  (-1  1  0)  (-1  0  0)  (-1  0  0)  (-1  0  0)  (-1  0  0)
  (-1  0  0)  (-1  0  0)  ( 0 -1  0)  ( 0 -1  0)  (-1  1  0)  (-1  1  0)
  ( 0  0  1)  ( 0  0 -1)  ( 0  0  1)  ( 0  0 -1)  ( 0  0  1)  ( 0  0 -1)
Note: your k-points are not as symmetric as your crystal!

64 k-points: 8 x 8 x 1 Monkhorst-Pack grid
20 k-points in the irreducible part of the Brillouin zone
       k-points in crystal coordinates                weights
   0:     0.06250000   -0.06250000    0.00000000          2/64
   1:     0.06250000    0.06250000    0.00000000          2/64
   2:     0.18750000   -0.18750000    0.00000000          2/64
   3:     0.18750000   -0.06250000    0.00000000          4/64
   4:     0.18750000    0.06250000    0.00000000          4/64
   5:     0.18750000    0.18750000    0.00000000          2/64
   6:     0.31250000   -0.31250000    0.00000000          2/64
   7:     0.31250000   -0.18750000    0.00000000          4/64
   8:     0.31250000   -0.06250000    0.00000000          4/64
   9:     0.31250000    0.06250000    0.00000000          4/64
          ...
  19:     0.43750000    0.43750000    0.00000000          2/64

Wave functions: Plane wave expansion
  Cutoff energy: 400.000 eV
  Number of coefficients (min, max): 41255, 41339
  Pulay-stress correction: 0.000000 eV/Ang^3 (de/decut=0.000000)
  Using FFTW library
  ScaLapack parameters: grid=1x1, blocksize=None
  Wavefunction extrapolation:
    Improved wavefunction reuse through dual PAW basis 

Occupation numbers: Fermi-Dirac: width=0.1000 eV
 

Eigensolver
   Davidson(niter=2) 

Densities:
  Coarse grid: 54*54*96 grid
  Fine grid: 108*108*192 grid
  Total Charge: 0.000000 

Density mixing:
  Method: separate
  Backend: pulay
  Linear mixing parameter: 0.05
  Mixing with 5 old densities
  Damping of long wave oscillations: 50 

Hamiltonian:
  XC and Coulomb potentials evaluated on a 108*108*192 grid
  Using the PBE Exchange-Correlation functional
  External potential:
    NoExternalPotential
 

XC parameters: PBE with 2 nearest neighbor stencil

Memory estimate:
  Process memory now: 1412.02 MiB
  Calculator: 711.80 MiB
    Density: 120.55 MiB
      Arrays: 55.53 MiB
      Localized functions: 43.66 MiB
      Mixer: 21.36 MiB
    Hamiltonian: 37.20 MiB
      Arrays: 36.31 MiB
      XC: 0.00 MiB
      Poisson: 0.00 MiB
      vbar: 0.89 MiB
    Wavefunctions: 554.06 MiB
      Arrays psit_nG: 416.32 MiB
      Eigensolver: 24.14 MiB
      Projections: 2.09 MiB
      Projectors: 88.21 MiB
      PW-descriptor: 23.29 MiB

Total number of cores used: 1

Number of atoms: 16
Number of atomic orbitals: 64
Number of bands in calculation: 33
Number of valence electrons: 48
Bands to converge: occupied

... initialized

Initializing position-dependent things.

Density initialized from atomic densities
Creating initial wave functions:
  33 bands from LCAO basis set

                                                    
                                                    
                                                    
                                                    
                      Al     Al     Al     Al       
                 Al     Al     Al     Al            
                                                    
            Al     Al     Al     Al                 
       Al     Al     Al     Al                      
                                                    
                                                    
                                                    
                                                    

Positions:
   0 Al     0.000000    0.000000   10.000000    ( 0.0000,  0.0000,  0.0000)
   1 Al     2.863782    0.000000   10.000000    ( 0.0000,  0.0000,  0.0000)
   2 Al     5.727565    0.000000   10.000000    ( 0.0000,  0.0000,  0.0000)
   3 Al     8.591347    0.000000   10.000000    ( 0.0000,  0.0000,  0.0000)
   4 Al     1.431891    2.480108   10.000000    ( 0.0000,  0.0000,  0.0000)
   5 Al     4.295674    2.480108   10.000000    ( 0.0000,  0.0000,  0.0000)
   6 Al     7.159456    2.480108   10.000000    ( 0.0000,  0.0000,  0.0000)
   7 Al    10.023239    2.480108   10.000000    ( 0.0000,  0.0000,  0.0000)
   8 Al     2.863782    4.960217   10.000000    ( 0.0000,  0.0000,  0.0000)
   9 Al     5.727565    4.960217   10.000000    ( 0.0000,  0.0000,  0.0000)
  10 Al     8.591347    4.960217   10.000000    ( 0.0000,  0.0000,  0.0000)
  11 Al    11.455130    4.960217   10.000000    ( 0.0000,  0.0000,  0.0000)
  12 Al     4.295674    7.440325   10.000000    ( 0.0000,  0.0000,  0.0000)
  13 Al     7.159456    7.440325   10.000000    ( 0.0000,  0.0000,  0.0000)
  14 Al    10.023239    7.440325   10.000000    ( 0.0000,  0.0000,  0.0000)
  15 Al    12.887021    7.440325   10.000000    ( 0.0000,  0.0000,  0.0000)

Unit cell:
           periodic     x           y           z      points  spacing
  1. axis:    yes   11.455130    0.000000    0.000000    54     0.1837
  2. axis:    yes    5.727565    9.920433    0.000000    54     0.1837
  3. axis:    no     0.000000    0.000000   20.000000    96     0.2083

  Lengths:  11.455130  11.455130  20.000000
  Angles:   90.000000  90.000000  60.000000

Effective grid spacing dv^(1/3) = 0.2010

     iter     time        total  log10-change:
                         energy  eigst   dens
iter:   1 19:22:12   -47.386106
iter:   2 19:22:36   -47.645757  -1.00  -0.83
iter:   3 19:23:00   -48.423805  -1.44  -0.82
iter:   4 19:23:24   -47.267930  -1.45  -0.68
iter:   5 19:23:48   -47.291590  -2.21  -1.25
iter:   6 19:24:13   -47.114092  -2.60  -1.22
iter:   7 19:24:37   -47.010515  -2.61  -1.42
iter:   8 19:25:02   -47.011609  -3.11  -2.11
iter:   9 19:25:27   -47.009964c -3.30  -2.16
iter:  10 19:25:51   -47.010218c -3.62  -2.63
iter:  11 19:26:16   -47.010781c -3.83  -2.88
iter:  12 19:26:40   -47.010671c -4.08  -2.59
iter:  13 19:27:05   -47.010522c -4.30  -2.77
iter:  14 19:27:30   -47.010482c -4.49  -2.97
iter:  15 19:27:54   -47.010494c -4.76  -3.50
iter:  16 19:28:19   -47.010498c -4.96  -3.48
iter:  17 19:28:44   -47.010500c -5.17  -3.56
iter:  18 19:29:09   -47.010497c -5.41  -3.59
iter:  19 19:29:34   -47.010499c -5.63  -3.87
iter:  20 19:29:58   -47.010500c -5.84  -3.93
iter:  21 19:30:23   -47.010500c -6.05  -3.97
iter:  22 19:30:48   -47.010500c -6.27  -4.02c
iter:  23 19:31:12   -47.010501c -6.49  -4.15c
iter:  24 19:31:37   -47.010501c -6.68  -4.17c
iter:  25 19:32:02   -47.010501c -6.89  -4.20c
iter:  26 19:32:27   -47.010500c -7.12  -4.23c
iter:  27 19:32:51   -47.010500c -7.35  -4.47c
iter:  28 19:33:16   -47.010500c -7.56c -4.51c

Converged after 28 iterations.

Dipole moment: (0.000000, -0.000000, 0.000000) |e|*Ang

Energy contributions relative to reference atoms: (reference = -105654.772238)

Kinetic:         -7.952952
Potential:      +11.962880
External:        +0.000000
XC:             -50.839527
Entropy (-ST):   -0.334769
Local:           -0.013517
--------------------------
Free energy:    -47.177885
Extrapolated:   -47.010500

Showing only first 2 kpts
 Kpt  Band  Eigenvalues  Occupancy
  0    22     -3.07965    1.67397
  0    23     -3.07964    1.67396
  0    24     -2.81114    0.51881
  0    25     -2.81113    0.51874

  1    22     -3.18044    1.86727
  1    23     -3.00130    1.40219
  1    24     -3.00127    1.40205
  1    25     -2.91178    0.97863


Fermi level: -2.91605

No gap

Forces in eV/Ang:
  0 Al    0.00000    0.00000    0.00000
  1 Al    0.00036    0.00000    0.00000
  2 Al   -0.00000    0.00000    0.00000
  3 Al   -0.00036    0.00000    0.00000
  4 Al    0.00018    0.00031    0.00000
  5 Al   -0.00034   -0.00020    0.00000
  6 Al    0.00034   -0.00020    0.00000
  7 Al   -0.00018    0.00031    0.00000
  8 Al   -0.00000    0.00000    0.00000
  9 Al   -0.00000    0.00039    0.00000
 10 Al   -0.00000    0.00000    0.00000
 11 Al   -0.00000   -0.00039    0.00000
 12 Al   -0.00018   -0.00031    0.00000
 13 Al    0.00018   -0.00031    0.00000
 14 Al   -0.00034    0.00020    0.00000
 15 Al    0.00034    0.00020    0.00000

Timing:                              incl.     excl.
-----------------------------------------------------------
Forces:                              6.099     6.099   0.9% |
Hamiltonian:                         0.948     0.004   0.0% |
 Atomic:                             0.309     0.001   0.0% |
  XC Correction:                     0.308     0.308   0.0% |
 Calculate atomic Hamiltonians:      0.245     0.245   0.0% |
 Communicate:                        0.000     0.000   0.0% |
 Initialize Hamiltonian:             0.000     0.000   0.0% |
 Poisson:                            0.005     0.005   0.0% |
 XC 3D grid:                         0.384     0.384   0.1% |
LCAO initialization:                10.772     0.010   0.0% |
 LCAO eigensolver:                   0.139     0.000   0.0% |
  Calculate projections:             0.004     0.004   0.0% |
  DenseAtomicCorrection:             0.010     0.010   0.0% |
  Distribute overlap matrix:         0.001     0.001   0.0% |
  Orbital Layouts:                   0.044     0.044   0.0% |
  Potential matrix:                  0.067     0.067   0.0% |
  Sum over cells:                    0.013     0.013   0.0% |
 LCAO to grid:                      10.130    10.130   1.4% ||
 Set positions (LCAO WFS):           0.493     0.038   0.0% |
  Basic WFS set positions:           0.007     0.007   0.0% |
  Basis functions set positions:     0.000     0.000   0.0% |
  P tci:                             0.381     0.381   0.1% |
  ST tci:                            0.060     0.060   0.0% |
  mktci:                             0.007     0.007   0.0% |
PWDescriptor:                        0.146     0.146   0.0% |
SCF-cycle:                         686.209     0.125   0.0% |
 Davidson:                         607.113   199.947  28.3% |----------|
  Apply H:                          82.714    81.161  11.5% |----|
   HMM T:                            1.554     1.554   0.2% |
  Subspace diag:                   100.982     0.065   0.0% |
   calc_h_matrix:                   89.667     7.001   1.0% |
    Apply H:                        82.665    81.129  11.5% |----|
     HMM T:                          1.536     1.536   0.2% |
   diagonalize:                      0.187     0.187   0.0% |
   rotate_psi:                      11.063    11.063   1.6% ||
  calc. matrices:                  189.952    40.740   5.8% |-|
   Apply H:                        149.212   146.265  20.7% |-------|
    HMM T:                           2.948     2.948   0.4% |
  diagonalize:                       5.410     5.410   0.8% |
  rotate_psi:                       28.108    28.108   4.0% |-|
 Density:                           50.319     0.000   0.0% |
  Atomic density matrices:           0.159     0.159   0.0% |
  Mix:                               8.702     8.702   1.2% |
  Multipole moments:                 0.005     0.005   0.0% |
  Pseudo density:                   41.451    37.906   5.4% |-|
   Symmetrize density:               3.545     3.545   0.5% |
 Hamiltonian:                       26.706     0.092   0.0% |
  Atomic:                            8.711     0.028   0.0% |
   XC Correction:                    8.683     8.683   1.2% |
  Calculate atomic Hamiltonians:     7.276     7.276   1.0% |
  Communicate:                       0.000     0.000   0.0% |
  Poisson:                           0.125     0.125   0.0% |
  XC 3D grid:                       10.502    10.502   1.5% ||
 Orthonormalize:                     1.946     0.002   0.0% |
  calc_s_matrix:                     0.131     0.131   0.0% |
  inverse-cholesky:                  0.002     0.002   0.0% |
  projections:                       1.609     1.609   0.2% |
  rotate_psi_s:                      0.202     0.202   0.0% |
Set symmetry:                        0.008     0.008   0.0% |
Other:                               2.953     2.953   0.4% |
-----------------------------------------------------------
Total:                                       707.135 100.0%

Memory usage: 2.52 GiB
Date: Mon Feb  6 19:33:22 2023
