
  ___ ___ ___ _ _ _  
 |   |   |_  | | | | 
 | | | | | . | | | | 
 |__ |  _|___|_____|  22.1.0
 |___|_|             

User:   ameerracle@ameer-Mint-B450-AORUS-PRO-WIFI
Date:   Mon Feb  6 22:34:34 2023
Arch:   x86_64
Pid:    37860
Python: 3.10.6
gpaw:   /usr/lib/python3/dist-packages/gpaw
_gpaw:  /usr/lib/python3/dist-packages/_gpaw.cpython-310-x86_64-linux-gnu.so
ase:    /usr/lib/python3/dist-packages/ase (version 3.22.1)
numpy:  /home/ameerracle/.local/lib/python3.10/site-packages/numpy (version 1.23.5)
scipy:  /home/ameerracle/.local/lib/python3.10/site-packages/scipy (version 1.10.0)
libxc:  5.1.7
units:  Angstrom and eV
cores: 1
OpenMP: False
OMP_NUM_THREADS: 1

Input parameters:
  h: 0.2
  mode: lcao
  xc: PBE

System changes: positions, numbers, cell, pbc, initial_charges, initial_magmoms 

Initialize ...

Li-setup:
  name: Lithium
  id: 830b4218f175192f93f959cfc0aad614
  Z: 3.0
  valence: 1
  core: 2
  charge: 0.0
  file: /usr/share/gpaw-setups/Li.PBE.gz
  compensation charges: gauss, rc=0.33, lmax=2
  cutoffs: 1.91(filt), 2.55(core),
  valence states:
                energy  radius
    2s(1.00)    -2.874   1.058
    2p(0.00)    -1.090   1.058
    *s          24.337   1.058

  Using partial waves for Li as LCAO basis

S-setup:
  name: Sulfur
  id: ca434db9faa07220b7a1d8cb6886b7a9
  Z: 16.0
  valence: 6
  core: 10
  charge: 0.0
  file: /usr/share/gpaw-setups/S.PBE.gz
  compensation charges: gauss, rc=0.24, lmax=2
  cutoffs: 1.77(filt), 1.66(core),
  valence states:
                energy  radius
    3s(2.00)   -17.254   0.974
    3p(4.00)    -7.008   0.979
    *s           9.957   0.974
    *p          20.203   0.979
    *d           0.000   0.900

  Using partial waves for S as LCAO basis

Reference energy: -43836.055231

Spin-paired calculation

Convergence criteria:
 Maximum [total energy] change in last 3 cyles: 0.0005 eV / electron
 Maximum integral of absolute [dens]ity change: 0.0001 electrons / valence electron
 Maximum integral of absolute [eigenst]ate change: 4e-08 eV^2 / valence electron
 Maximum number of scf [iter]ations: 333
 (Square brackets indicate name in SCF output, whereas a 'c' in
 the SCF output indicates the quantity has converged.)

Symmetries present (total): 16

  ( 1  0  0)  ( 1  0  0)  ( 1  0  0)  ( 1  0  0)  ( 1  0  0)  ( 1  0  0)
  ( 0  1  0)  ( 0  1  0)  ( 0  0  1)  ( 0  0  1)  ( 0  0 -1)  ( 0  0 -1)
  ( 0  0  1)  ( 0  0 -1)  ( 0  1  0)  ( 0 -1  0)  ( 0  1  0)  ( 0 -1  0)

  ( 1  0  0)  ( 1  0  0)  (-1  0  0)  (-1  0  0)  (-1  0  0)  (-1  0  0)
  ( 0 -1  0)  ( 0 -1  0)  ( 0  1  0)  ( 0  1  0)  ( 0  0  1)  ( 0  0  1)
  ( 0  0  1)  ( 0  0 -1)  ( 0  0  1)  ( 0  0 -1)  ( 0  1  0)  ( 0 -1  0)

  (-1  0  0)  (-1  0  0)  (-1  0  0)  (-1  0  0)
  ( 0  0 -1)  ( 0  0 -1)  ( 0 -1  0)  ( 0 -1  0)
  ( 0  1  0)  ( 0 -1  0)  ( 0  0  1)  ( 0  0 -1)

1 k-point (Gamma)
1 k-point in the irreducible part of the Brillouin zone
       k-points in crystal coordinates                weights
   0:     0.00000000    0.00000000    0.00000000          1/1

Wave functions: LCAO
  Diagonalizer: Serial LAPACK
  Atomic Correction: dense with blas
  Datatype: float
 

Occupation numbers: width=0.000 eV 

Eigensolver
   LCAO using direct dense diagonalizer 

Densities:
  Coarse grid: 112*100*100 grid
  Fine grid: 224*200*200 grid
  Total Charge: 0.000000 

Density mixing:
  Method: separate
  Backend: pulay
  Linear mixing parameter: 0.25
  Mixing with 3 old densities
  No damping of long wave oscillations 

Hamiltonian:
  XC and Coulomb potentials evaluated on a 224*200*200 grid
  Using the PBE Exchange-Correlation functional
  Interpolation: tri-quintic (5. degree polynomial)
  Poisson solver: FastPoissonSolver using
    Stencil: 6*3+1=19 point O(h^6) finite-difference Laplacian
    FFT axes: []
    FST axes: [1, 2, 0]
 

XC parameters: PBE with 2 nearest neighbor stencil

Memory estimate:
  Process memory now: 933.63 MiB
  Calculator: 434.21 MiB
    Density: 282.76 MiB
      Arrays: 218.73 MiB
      Localized functions: 14.23 MiB
      Mixer: 49.80 MiB
    Hamiltonian: 144.20 MiB
      Arrays: 143.05 MiB
      XC: 0.00 MiB
      Poisson: 0.00 MiB
      vbar: 1.15 MiB
    Wavefunctions: 7.26 MiB
      C [qnM]: 0.00 MiB
      S, T [2 x qmm]: 0.01 MiB
      P [aqMi]: 0.00 MiB
      BasisFunctions: 7.24 MiB
      Eigensolver: 0.00 MiB

Total number of cores used: 1

Number of atoms: 6
Number of atomic orbitals: 24
Number of bands in calculation: 20
Number of valence electrons: 26
Bands to converge: occupied

... initialized

Initializing position-dependent things.

Density initialized from atomic densities
             .------------------------------------------------------.  
            /|                                                      |  
           / |                                                      |  
          /  |                                                      |  
         /   |                                                      |  
        /    |                                                      |  
       /     |                                                      |  
      /      |                                                      |  
     /       |                                                      |  
    /        |                                                      |  
   /         |                                                      |  
  /          |                                                      |  
 *           |                                                      |  
 |           |                                                      |  
 |           |                                                      |  
 |           |                                                      |  
 |           |                                                      |  
 |           |                                                      |  
 |           |                                                      |  
 |           |                 LiSSSS Li                            |  
 |           |                                                      |  
 |           |                                                      |  
 |           |                                                      |  
 |           |                                                      |  
 |           |                                                      |  
 |           .------------------------------------------------------.  
 |          /                                                      /   
 |         /                                                      /    
 |        /                                                      /     
 |       /                                                      /      
 |      /                                                      /       
 |     /                                                      /        
 |    /                                                      /         
 |   /                                                      /          
 |  /                                                      /           
 | /                                                      /            
 |/                                                      /             
 *------------------------------------------------------*              

Positions:
   0 Li    10.000000   10.000000   10.000000    ( 0.0000,  0.0000,  0.0000)
   1 Li    12.500000   10.000000   10.000000    ( 0.0000,  0.0000,  0.0000)
   2 S     11.000000   10.000000   10.000000    ( 0.0000,  0.0000,  0.0000)
   3 S     11.500000   10.000000   10.000000    ( 0.0000,  0.0000,  0.0000)
   4 S     12.000000   10.000000   10.000000    ( 0.0000,  0.0000,  0.0000)
   5 S     10.500000   10.000000   10.000000    ( 0.0000,  0.0000,  0.0000)

Unit cell:
           periodic     x           y           z      points  spacing
  1. axis:    no    22.500000    0.000000    0.000000   112     0.2009
  2. axis:    no     0.000000   20.000000    0.000000   100     0.2000
  3. axis:    no     0.000000    0.000000   20.000000   100     0.2000

  Lengths:  22.500000  20.000000  20.000000
  Angles:   90.000000  90.000000  90.000000

Effective grid spacing dv^(1/3) = 0.2003

     iter     time        total  log10-change:
                         energy  eigst   dens
iter:   1 22:34:40  1817.834905       c
iter:   2 22:34:42  1821.266519       c -0.65
iter:   3 22:34:45  1817.659489       c -0.79
iter:   4 22:34:47  1817.560822       c -1.76
iter:   5 22:34:49  1817.584971       c -1.93
iter:   6 22:34:52  1817.585127       c -3.07
iter:   7 22:34:54  1817.585146c      c -3.33
iter:   8 22:34:56  1817.585148c      c -3.91
iter:   9 22:34:59  1817.585149c      c -4.07c

Converged after 9 iterations.

Dipole moment: (-0.000000, -0.000000, -0.000000) |e|*Ang

Energy contributions relative to reference atoms: (reference = -43836.055231)

Kinetic:       +1656.820892
Potential:     +234.939900
External:        +0.000000
XC:            -173.236626
Entropy (-ST):   +0.000000
Local:          +99.060983
--------------------------
Free energy:   +1817.585149
Extrapolated:  +1817.585149

 Band  Eigenvalues  Occupancy
    0    -59.46256    2.00000
    1    -59.46256    2.00000
    2    -52.02458    2.00000
    3    -52.02458    2.00000
    4    -36.08414    2.00000
    5    -29.32500    2.00000
    6    -29.32500    2.00000
    7    -28.80046    2.00000
    8    -20.32691    2.00000
    9    -17.43150    2.00000
   10    -16.15632    2.00000
   11    -16.15632    2.00000
   12     -6.31204    2.00000
   13     -5.40834    0.00000
   14     -2.47898    0.00000
   15     -2.47898    0.00000
   16      1.56172    0.00000
   17      1.56172    0.00000
   18      4.39539    0.00000
   19      6.54742    0.00000

Fermi level: -5.86019

Gap: 0.904 eV
Transition (v -> c):
  (s=0, k=0, n=12, [0.00, 0.00, 0.00]) -> (s=0, k=0, n=13, [0.00, 0.00, 0.00])

Forces in eV/Ang:
  0 Li -174.85478    0.00000    0.00000
  1 Li  174.85478    0.00000    0.00000
  2 S  -130.52462    0.00000    0.00000
  3 S   130.52462    0.00000    0.00000
  4 S  1408.77422   -0.00000    0.00000
  5 S  -1408.77422   -0.00000    0.00000

System changes: positions 

Initializing position-dependent things.

Density initialized from wave functions
             .------------------------------------------------------.  
            /|                                                      |  
           / |                                                      |  
          /  |                                                      |  
         /   |                                                      |  
        /    |                                                      |  
       /     |                                                      |  
      /      |                                                      |  
     /       |                                                      |  
    /        |                                                      |  
   /         |                                                      |  
  /          |                                                      |  
 *           |                                                      |  
 |           |                                                      |  
 |           |                                                      |  
 |           |                                                      |  
 |           |                                                      |  
 |           |                                                      |  
 |           |                                                      |  
 |           |                 Li SS SLi                            |  
 |           |                                                      |  
 |           |                                                      |  
 |           |                                                      |  
 |           |                                                      |  
 |           |                                                      |  
 |           .------------------------------------------------------.  
 |          /                                                      /   
 |         /                                                      /    
 |        /                                                      /     
 |       /                                                      /      
 |      /                                                      /       
 |     /                                                      /        
 |    /                                                      /         
 |   /                                                      /          
 |  /                                                      /           
 | /                                                      /            
 |/                                                      /             
 *------------------------------------------------------*              

Positions:
   0 Li     9.975176   10.000000   10.000000    ( 0.0000,  0.0000,  0.0000)
   1 Li    12.524824   10.000000   10.000000    ( 0.0000,  0.0000,  0.0000)
   2 S     10.981470   10.000000   10.000000    ( 0.0000,  0.0000,  0.0000)
   3 S     11.518530   10.000000   10.000000    ( 0.0000,  0.0000,  0.0000)
   4 S     12.200000   10.000000   10.000000    ( 0.0000,  0.0000,  0.0000)
   5 S     10.300000   10.000000   10.000000    ( 0.0000,  0.0000,  0.0000)

Unit cell:
           periodic     x           y           z      points  spacing
  1. axis:    no    22.500000    0.000000    0.000000   112     0.2009
  2. axis:    no     0.000000   20.000000    0.000000   100     0.2000
  3. axis:    no     0.000000    0.000000   20.000000   100     0.2000

  Lengths:  22.500000  20.000000  20.000000
  Angles:   90.000000  90.000000  90.000000

Effective grid spacing dv^(1/3) = 0.2003

     iter     time        total  log10-change:
                         energy  eigst   dens
iter:   1 22:35:01  1299.847295       c
iter:   2 22:35:04  1317.380792       c -0.45
iter:   3 22:35:06  1332.366795       c -0.61
iter:   4 22:35:08  1332.836338       c -1.12
iter:   5 22:35:11  1332.914160       c -1.54
iter:   6 22:35:13  1332.915038       c -2.50
iter:   7 22:35:15  1332.915626c      c -2.67
iter:   8 22:35:18  1332.915646c      c -3.43
iter:   9 22:35:20  1332.915661c      c -3.62
iter:  10 22:35:22  1332.915662c      c -4.07c

Converged after 10 iterations.

Dipole moment: (0.000000, 0.000000, 0.000000) |e|*Ang

Energy contributions relative to reference atoms: (reference = -43836.055231)

Kinetic:       +1281.123304
Potential:     +157.272509
External:        +0.000000
XC:            -143.170117
Entropy (-ST):   +0.000000
Local:          +37.689967
--------------------------
Free energy:   +1332.915662
Extrapolated:  +1332.915662

 Band  Eigenvalues  Occupancy
    0    -54.95961    2.00000
    1    -54.95961    2.00000
    2    -50.10318    2.00000
    3    -50.10318    2.00000
    4    -41.30060    2.00000
    5    -34.50586    2.00000
    6    -30.59373    2.00000
    7    -30.59373    2.00000
    8    -25.58021    2.00000
    9    -18.56298    2.00000
   10    -18.56298    2.00000
   11     -9.79929    2.00000
   12     -7.85593    2.00000
   13     -3.49428    0.00000
   14     -3.08758    0.00000
   15     -3.08758    0.00000
   16      0.68851    0.00000
   17      0.80485    0.00000
   18      0.80485    0.00000
   19      4.84023    0.00000

Fermi level: -5.67511

Gap: 4.362 eV
Transition (v -> c):
  (s=0, k=0, n=12, [0.00, 0.00, 0.00]) -> (s=0, k=0, n=13, [0.00, 0.00, 0.00])

Forces in eV/Ang:
  0 Li -169.11882    0.00000    0.00000
  1 Li  169.11882    0.00000    0.00000
  2 S  -195.03799    0.00000    0.00000
  3 S   195.03799    0.00000    0.00000
  4 S  1009.93458    0.00000    0.00000
  5 S  -1009.93458   -0.00000    0.00000

System changes: positions 

Initializing position-dependent things.

Density initialized from wave functions
             .------------------------------------------------------.  
            /|                                                      |  
           / |                                                      |  
          /  |                                                      |  
         /   |                                                      |  
        /    |                                                      |  
       /     |                                                      |  
      /      |                                                      |  
     /       |                                                      |  
    /        |                                                      |  
   /         |                                                      |  
  /          |                                                      |  
 *           |                                                      |  
 |           |                                                      |  
 |           |                                                      |  
 |           |                                                      |  
 |           |                                                      |  
 |           |                                                      |  
 |           |                                                      |  
 |           |                 LiS  SSLi                            |  
 |           |                                                      |  
 |           |                                                      |  
 |           |                                                      |  
 |           |                                                      |  
 |           |                                                      |  
 |           .------------------------------------------------------.  
 |          /                                                      /   
 |         /                                                      /    
 |        /                                                      /     
 |       /                                                      /      
 |      /                                                      /       
 |     /                                                      /        
 |    /                                                      /         
 |   /                                                      /          
 |  /                                                      /           
 | /                                                      /            
 |/                                                      /             
 *------------------------------------------------------*              

Positions:
   0 Li     9.884666   10.000000   10.000000    ( 0.0000,  0.0000,  0.0000)
   1 Li    12.615334   10.000000   10.000000    ( 0.0000,  0.0000,  0.0000)
   2 S     10.781470   10.000000   10.000000    ( 0.0000,  0.0000,  0.0000)
   3 S     11.718530   10.000000   10.000000    ( 0.0000,  0.0000,  0.0000)
   4 S     12.250388   10.000000   10.000000    ( 0.0000,  0.0000,  0.0000)
   5 S     10.249612   10.000000   10.000000    ( 0.0000,  0.0000,  0.0000)

Unit cell:
           periodic     x           y           z      points  spacing
  1. axis:    no    22.500000    0.000000    0.000000   112     0.2009
  2. axis:    no     0.000000   20.000000    0.000000   100     0.2000
  3. axis:    no     0.000000    0.000000   20.000000   100     0.2000

  Lengths:  22.500000  20.000000  20.000000
  Angles:   90.000000  90.000000  90.000000

Effective grid spacing dv^(1/3) = 0.2003

     iter     time        total  log10-change:
                         energy  eigst   dens
iter:   1 22:35:25  1190.866764       c
iter:   2 22:35:27  1229.898571       c -0.26
iter:   3 22:35:29  1260.254606       c -0.43
iter:   4 22:35:32  1260.679603       c -1.01
iter:   5 22:35:34  1261.154781       c -1.38
iter:   6 22:35:36  1261.160580       c -2.18
iter:   7 22:35:39  1261.164725c      c -2.37
iter:   8 22:35:41  1261.164830c      c -3.01
iter:   9 22:35:43  1261.164956c      c -3.15
iter:  10 22:35:46  1261.164963c      c -3.78
iter:  11 22:35:48  1261.164965c      c -3.99
iter:  12 22:35:50  1261.164966c      c -4.27c

Converged after 12 iterations.

Dipole moment: (0.000000, 0.000000, 0.000000) |e|*Ang

Energy contributions relative to reference atoms: (reference = -43836.055231)

Kinetic:       +1064.277521
Potential:     +289.593769
External:        +0.000000
XC:            -131.295151
Entropy (-ST):   +0.000000
Local:          +38.588827
--------------------------
Free energy:   +1261.164966
Extrapolated:  +1261.164966

 Band  Eigenvalues  Occupancy
    0    -56.13489    2.00000
    1    -44.73077    2.00000
    2    -44.73077    2.00000
    3    -41.43467    2.00000
    4    -41.43467    2.00000
    5    -31.93220    2.00000
    6    -31.93220    2.00000
    7    -31.60138    2.00000
    8    -17.89133    2.00000
    9    -17.89133    2.00000
   10    -16.82401    2.00000
   11    -10.49745    2.00000
   12     -9.60107    2.00000
   13     -2.80192    0.00000
   14     -2.67850    0.00000
   15     -2.67850    0.00000
   16      0.83179    0.00000
   17      0.83179    0.00000
   18      3.36343    0.00000
   19      8.44640    0.00000

Fermi level: -6.20149

Gap: 6.799 eV
Transition (v -> c):
  (s=0, k=0, n=12, [0.00, 0.00, 0.00]) -> (s=0, k=0, n=13, [0.00, 0.00, 0.00])

Forces in eV/Ang:
  0 Li  -45.15613    0.00000    0.00000
  1 Li   45.15613    0.00000    0.00000
  2 S   690.21595   -0.00000    0.00000
  3 S  -690.21595   -0.00000    0.00000
  4 S  1213.08513    0.00000    0.00000
  5 S  -1213.08513    0.00000    0.00000

System changes: positions 

Initializing position-dependent things.

Density initialized from wave functions
             .------------------------------------------------------.  
            /|                                                      |  
           / |                                                      |  
          /  |                                                      |  
         /   |                                                      |  
        /    |                                                      |  
       /     |                                                      |  
      /      |                                                      |  
     /       |                                                      |  
    /        |                                                      |  
   /         |                                                      |  
  /          |                                                      |  
 *           |                                                      |  
 |           |                                                      |  
 |           |                                                      |  
 |           |                                                      |  
 |           |                                                      |  
 |           |                                                      |  
 |           |                                                      |  
 |           |                 LiS  SSLi                            |  
 |           |                                                      |  
 |           |                                                      |  
 |           |                                                      |  
 |           |                                                      |  
 |           |                                                      |  
 |           .------------------------------------------------------.  
 |          /                                                      /   
 |         /                                                      /    
 |        /                                                      /     
 |       /                                                      /      
 |      /                                                      /       
 |     /                                                      /        
 |    /                                                      /         
 |   /                                                      /          
 |  /                                                      /           
 | /                                                      /            
 |/                                                      /             
 *------------------------------------------------------*              

Positions:
   0 Li     9.684666   10.000000   10.000000    ( 0.0000,  0.0000,  0.0000)
   1 Li    12.815334   10.000000   10.000000    ( 0.0000,  0.0000,  0.0000)
   2 S     10.802210   10.000000   10.000000    ( 0.0000,  0.0000,  0.0000)
   3 S     11.697790   10.000000   10.000000    ( 0.0000,  0.0000,  0.0000)
   4 S     12.317899   10.000000   10.000000    ( 0.0000,  0.0000,  0.0000)
   5 S     10.182101   10.000000   10.000000    ( 0.0000,  0.0000,  0.0000)

Unit cell:
           periodic     x           y           z      points  spacing
  1. axis:    no    22.500000    0.000000    0.000000   112     0.2009
  2. axis:    no     0.000000   20.000000    0.000000   100     0.2000
  3. axis:    no     0.000000    0.000000   20.000000   100     0.2000

  Lengths:  22.500000  20.000000  20.000000
  Angles:   90.000000  90.000000  90.000000

Effective grid spacing dv^(1/3) = 0.2003

     iter     time        total  log10-change:
                         energy  eigst   dens
iter:   1 22:35:53  1007.519574       c
iter:   2 22:35:55  1029.277645       c -0.47
iter:   3 22:35:57  1050.237615       c -0.63
iter:   4 22:36:00  1050.736996       c -1.10
iter:   5 22:36:02  1050.909251       c -1.39
iter:   6 22:36:04  1050.911638       c -2.11
iter:   7 22:36:07  1050.912514c      c -2.27
iter:   8 22:36:09  1050.912977c      c -2.77
iter:   9 22:36:11  1050.913077c      c -3.05
iter:  10 22:36:14  1050.913162c      c -3.15
iter:  11 22:36:16  1050.913163c      c -3.78
iter:  12 22:36:18  1050.913164c      c -3.97
iter:  13 22:36:21  1050.913164c      c -4.67c

Converged after 13 iterations.

Dipole moment: (-0.000000, -0.000000, 0.000000) |e|*Ang

Energy contributions relative to reference atoms: (reference = -43836.055231)

Kinetic:       +1016.493351
Potential:     +134.429860
External:        +0.000000
XC:            -118.151810
Entropy (-ST):   +0.000000
Local:          +18.141764
--------------------------
Free energy:   +1050.913164
Extrapolated:  +1050.913164

 Band  Eigenvalues  Occupancy
    0    -48.60196    2.00000
    1    -41.93564    2.00000
    2    -41.93564    2.00000
    3    -39.19623    2.00000
    4    -39.19623    2.00000
    5    -30.29110    2.00000
    6    -30.29110    2.00000
    7    -25.78961    2.00000
    8    -19.65542    2.00000
    9    -17.78722    2.00000
   10    -17.78722    2.00000
   11     -7.44407    2.00000
   12     -6.92006    2.00000
   13     -4.84867    0.00000
   14     -2.47694    0.00000
   15     -2.47694    0.00000
   16      0.43651    0.00000
   17      0.43651    0.00000
   18      2.67542    0.00000
   19      9.33889    0.00000

Fermi level: -5.88437

Gap: 2.071 eV
Transition (v -> c):
  (s=0, k=0, n=12, [0.00, 0.00, 0.00]) -> (s=0, k=0, n=13, [0.00, 0.00, 0.00])

Forces in eV/Ang:
  0 Li -131.51299   -0.00000    0.00000
  1 Li  131.51299    0.00000    0.00000
  2 S   558.60175    0.00000    0.00000
  3 S  -558.60175    0.00000    0.00000
  4 S   988.63247    0.00000    0.00000
  5 S  -988.63247    0.00000    0.00000

System changes: positions 

Initializing position-dependent things.

Density initialized from wave functions
             .------------------------------------------------------.  
            /|                                                      |  
           / |                                                      |  
          /  |                                                      |  
         /   |                                                      |  
        /    |                                                      |  
       /     |                                                      |  
      /      |                                                      |  
     /       |                                                      |  
    /        |                                                      |  
   /         |                                                      |  
  /          |                                                      |  
 *           |                                                      |  
 |           |                                                      |  
 |           |                                                      |  
 |           |                                                      |  
 |           |                                                      |  
 |           |                                                      |  
 |           |                                                      |  
 |           |                LiSS  SS Li                           |  
 |           |                                                      |  
 |           |                                                      |  
 |           |                                                      |  
 |           |                                                      |  
 |           |                                                      |  
 |           .------------------------------------------------------.  
 |          /                                                      /   
 |         /                                                      /    
 |        /                                                      /     
 |       /                                                      /      
 |      /                                                      /       
 |     /                                                      /        
 |    /                                                      /         
 |   /                                                      /          
 |  /                                                      /           
 | /                                                      /            
 |/                                                      /             
 *------------------------------------------------------*              

Positions:
   0 Li     9.484666   10.000000   10.000000    ( 0.0000,  0.0000,  0.0000)
   1 Li    13.015334   10.000000   10.000000    ( 0.0000,  0.0000,  0.0000)
   2 S     10.823200   10.000000   10.000000    ( 0.0000,  0.0000,  0.0000)
   3 S     11.676800   10.000000   10.000000    ( 0.0000,  0.0000,  0.0000)
   4 S     12.382556   10.000000   10.000000    ( 0.0000,  0.0000,  0.0000)
   5 S     10.117444   10.000000   10.000000    ( 0.0000,  0.0000,  0.0000)

Unit cell:
           periodic     x           y           z      points  spacing
  1. axis:    no    22.500000    0.000000    0.000000   112     0.2009
  2. axis:    no     0.000000   20.000000    0.000000   100     0.2000
  3. axis:    no     0.000000    0.000000   20.000000   100     0.2000

  Lengths:  22.500000  20.000000  20.000000
  Angles:   90.000000  90.000000  90.000000

Effective grid spacing dv^(1/3) = 0.2003

     iter     time        total  log10-change:
                         energy  eigst   dens
iter:   1 22:36:23   829.979946       c
iter:   2 22:36:26   846.134925       c -0.53
iter:   3 22:36:28   855.677146       c -0.75
iter:   4 22:36:30   855.922634       c -1.21
iter:   5 22:36:32   856.143492       c -1.48
iter:   6 22:36:35   856.148732       c -2.11
iter:   7 22:36:37   856.149140c      c -2.45
iter:   8 22:36:39   856.149754c      c -2.63
iter:   9 22:36:42   856.149819c      c -3.14
iter:  10 22:36:44   856.149865c      c -3.32
iter:  11 22:36:46   856.149866c      c -4.09c

Converged after 11 iterations.

Dipole moment: (-0.000000, -0.000000, -0.000000) |e|*Ang

Energy contributions relative to reference atoms: (reference = -43836.055231)

Kinetic:       +1144.433343
Potential:     -167.780941
External:        +0.000000
XC:            -129.119449
Entropy (-ST):   +0.000000
Local:           +8.616913
--------------------------
Free energy:   +856.149866
Extrapolated:  +856.149866

 Band  Eigenvalues  Occupancy
    0    -37.97827    2.00000
    1    -34.61259    2.00000
    2    -34.61259    2.00000
    3    -31.34084    2.00000
    4    -31.34084    2.00000
    5    -23.16389    2.00000
    6    -22.80003    2.00000
    7    -22.80003    2.00000
    8    -20.44213    2.00000
    9    -11.14120    2.00000
   10    -11.14120    2.00000
   11     -6.73190    2.00000
   12     -4.85859    2.00000
   13     -4.27030    0.00000
   14     -1.12015    0.00000
   15     -1.12015    0.00000
   16      1.19089    0.00000
   17      1.52387    0.00000
   18      1.52387    0.00000
   19      5.43007    0.00000

Fermi level: -4.56445

Gap: 0.588 eV
Transition (v -> c):
  (s=0, k=0, n=12, [0.00, 0.00, 0.00]) -> (s=0, k=0, n=13, [0.00, 0.00, 0.00])

Forces in eV/Ang:
  0 Li -144.23014   -0.00000    0.00000
  1 Li  144.23014    0.00000    0.00000
  2 S   327.75827   -0.00000    0.00000
  3 S  -327.75827   -0.00000    0.00000
  4 S   847.19809   -0.00000    0.00000
  5 S  -847.19809    0.00000    0.00000

System changes: positions 

Initializing position-dependent things.

Density initialized from wave functions
             .------------------------------------------------------.  
            /|                                                      |  
           / |                                                      |  
          /  |                                                      |  
         /   |                                                      |  
        /    |                                                      |  
       /     |                                                      |  
      /      |                                                      |  
     /       |                                                      |  
    /        |                                                      |  
   /         |                                                      |  
  /          |                                                      |  
 *           |                                                      |  
 |           |                                                      |  
 |           |                                                      |  
 |           |                                                      |  
 |           |                                                      |  
 |           |                                                      |  
 |           |                Li                                    |  
 |           |                  SS  SS Li                           |  
 |           |                                                      |  
 |           |                                                      |  
 |           |                                                      |  
 |           |                                                      |  
 |           |                                                      |  
 |           .------------------------------------------------------.  
 |          /                                                      /   
 |         /                                                      /    
 |        /                                                      /     
 |       /                                                      /      
 |      /                                                      /       
 |     /                                                      /        
 |    /                                                      /         
 |   /                                                      /          
 |  /                                                      /           
 | /                                                      /            
 |/                                                      /             
 *------------------------------------------------------*              

Positions:
   0 Li     9.284666   10.000000   10.000000    ( 0.0000,  0.0000,  0.0000)
   1 Li    13.215334   10.000000   10.000000    ( 0.0000,  0.0000,  0.0000)
   2 S     10.814520   10.000000   10.000000    ( 0.0000,  0.0000,  0.0000)
   3 S     11.685480   10.000000   10.000000    ( 0.0000,  0.0000,  0.0000)
   4 S     12.464472   10.000000   10.000000    ( 0.0000,  0.0000,  0.0000)
   5 S     10.035528   10.000000   10.000000    ( 0.0000,  0.0000,  0.0000)

Unit cell:
           periodic     x           y           z      points  spacing
  1. axis:    no    22.500000    0.000000    0.000000   112     0.2009
  2. axis:    no     0.000000   20.000000    0.000000   100     0.2000
  3. axis:    no     0.000000    0.000000   20.000000   100     0.2000

  Lengths:  22.500000  20.000000  20.000000
  Angles:   90.000000  90.000000  90.000000

Effective grid spacing dv^(1/3) = 0.2003

     iter     time        total  log10-change:
                         energy  eigst   dens
iter:   1 22:36:49   680.273762       c
iter:   2 22:36:51   681.160385       c -1.11
iter:   3 22:36:54   681.658657       c -1.34
iter:   4 22:36:56   681.706587       c -1.70
iter:   5 22:36:58   681.708076       c -2.31
iter:   6 22:37:01   681.708962c      c -2.54
iter:   7 22:37:03   681.709057c      c -3.07
iter:   8 22:37:05   681.709062c      c -3.54
iter:   9 22:37:07   681.709064c      c -3.66
iter:  10 22:37:10   681.709064c      c -3.91
iter:  11 22:37:12   681.709064c      c -4.09c

Converged after 11 iterations.

Dipole moment: (-0.000000, -0.000000, -0.000000) |e|*Ang

Energy contributions relative to reference atoms: (reference = -43836.055231)

Kinetic:       +1149.474298
Potential:     -343.728558
External:        +0.000000
XC:            -128.082834
Entropy (-ST):   +0.000000
Local:           +4.046159
--------------------------
Free energy:   +681.709064
Extrapolated:  +681.709064

 Band  Eigenvalues  Occupancy
    0    -35.48733    2.00000
    1    -30.09844    2.00000
    2    -30.09844    2.00000
    3    -26.56864    2.00000
    4    -26.56864    2.00000
    5    -25.37359    2.00000
    6    -21.90005    2.00000
    7    -18.42351    2.00000
    8    -18.42351    2.00000
    9     -9.02927    2.00000
   10     -7.51837    2.00000
   11     -7.51837    2.00000
   12     -4.33651    2.00000
   13     -3.77888    0.00000
   14     -0.64198    0.00000
   15     -0.48755    0.00000
   16     -0.48755    0.00000
   17      2.27221    0.00000
   18      2.27221    0.00000
   19      3.34888    0.00000

Fermi level: -4.05770

Gap: 0.558 eV
Transition (v -> c):
  (s=0, k=0, n=12, [0.00, 0.00, 0.00]) -> (s=0, k=0, n=13, [0.00, 0.00, 0.00])

Forces in eV/Ang:
  0 Li -126.35220   -0.00000    0.00000
  1 Li  126.35220    0.00000    0.00000
  2 S   222.29869    0.00000    0.00000
  3 S  -222.29869    0.00000    0.00000
  4 S   672.72665    0.00000    0.00000
  5 S  -672.72665    0.00000    0.00000

System changes: positions 

Initializing position-dependent things.

Density initialized from wave functions
             .------------------------------------------------------.  
            /|                                                      |  
           / |                                                      |  
          /  |                                                      |  
         /   |                                                      |  
        /    |                                                      |  
       /     |                                                      |  
      /      |                                                      |  
     /       |                                                      |  
    /        |                                                      |  
   /         |                                                      |  
  /          |                                                      |  
 *           |                                                      |  
 |           |                                                      |  
 |           |                                                      |  
 |           |                                                      |  
 |           |                                                      |  
 |           |                                                      |  
 |           |               Li                                     |  
 |           |                 S S  S S Li                          |  
 |           |                                                      |  
 |           |                                                      |  
 |           |                                                      |  
 |           |                                                      |  
 |           |                                                      |  
 |           .------------------------------------------------------.  
 |          /                                                      /   
 |         /                                                      /    
 |        /                                                      /     
 |       /                                                      /      
 |      /                                                      /       
 |     /                                                      /        
 |    /                                                      /         
 |   /                                                      /          
 |  /                                                      /           
 | /                                                      /            
 |/                                                      /             
 *------------------------------------------------------*              

Positions:
   0 Li     9.084666   10.000000   10.000000    ( 0.0000,  0.0000,  0.0000)
   1 Li    13.415334   10.000000   10.000000    ( 0.0000,  0.0000,  0.0000)
   2 S     10.798441   10.000000   10.000000    ( 0.0000,  0.0000,  0.0000)
   3 S     11.701559   10.000000   10.000000    ( 0.0000,  0.0000,  0.0000)
   4 S     12.550581   10.000000   10.000000    ( 0.0000,  0.0000,  0.0000)
   5 S      9.949419   10.000000   10.000000    ( 0.0000,  0.0000,  0.0000)

Unit cell:
           periodic     x           y           z      points  spacing
  1. axis:    no    22.500000    0.000000    0.000000   112     0.2009
  2. axis:    no     0.000000   20.000000    0.000000   100     0.2000
  3. axis:    no     0.000000    0.000000   20.000000   100     0.2000

  Lengths:  22.500000  20.000000  20.000000
  Angles:   90.000000  90.000000  90.000000

Effective grid spacing dv^(1/3) = 0.2003

     iter     time        total  log10-change:
                         energy  eigst   dens
iter:   1 22:37:15   537.396709       c
iter:   2 22:37:17   537.589648       c -1.05
iter:   3 22:37:19   537.748704       c -1.18
iter:   4 22:37:22   537.754690       c -2.05
iter:   5 22:37:24   537.755054c      c -2.56
iter:   6 22:37:26   537.755282c      c -2.74
iter:   7 22:37:29   537.755286c      c -3.68
iter:   8 22:37:31   537.755287c      c -4.02c

Converged after 8 iterations.

Dipole moment: (0.000000, 0.000000, 0.000000) |e|*Ang

Energy contributions relative to reference atoms: (reference = -43836.055231)

Kinetic:       +1150.349104
Potential:     -488.888008
External:        +0.000000
XC:            -126.050776
Entropy (-ST):   +0.000000
Local:           +2.344968
--------------------------
Free energy:   +537.755287
Extrapolated:  +537.755287

 Band  Eigenvalues  Occupancy
    0    -35.03520    2.00000
    1    -27.15561    2.00000
    2    -26.64811    2.00000
    3    -26.64811    2.00000
    4    -22.64976    2.00000
    5    -22.64976    2.00000
    6    -22.44979    2.00000
    7    -14.77908    2.00000
    8    -14.77908    2.00000
    9     -9.72873    2.00000
   10     -4.91474    2.00000
   11     -4.91474    2.00000
   12     -4.85463    2.00000
   13     -2.92875    0.00000
   14     -1.85947    0.00000
   15      0.08403    0.00000
   16      0.08403    0.00000
   17      1.64008    0.00000
   18      2.53630    0.00000
   19      3.14684    0.00000

Fermi level: -3.89169

Gap: 1.926 eV
Transition (v -> c):
  (s=0, k=0, n=12, [0.00, 0.00, 0.00]) -> (s=0, k=0, n=13, [0.00, 0.00, 0.00])

Forces in eV/Ang:
  0 Li -114.26642    0.00000    0.00000
  1 Li  114.26642    0.00000    0.00000
  2 S   127.49338    0.00000    0.00000
  3 S  -127.49338   -0.00000    0.00000
  4 S   513.70886    0.00000    0.00000
  5 S  -513.70886   -0.00000    0.00000

System changes: positions 

Initializing position-dependent things.

Density initialized from wave functions
             .------------------------------------------------------.  
            /|                                                      |  
           / |                                                      |  
          /  |                                                      |  
         /   |                                                      |  
        /    |                                                      |  
       /     |                                                      |  
      /      |                                                      |  
     /       |                                                      |  
    /        |                                                      |  
   /         |                                                      |  
  /          |                                                      |  
 *           |                                                      |  
 |           |                                                      |  
 |           |                                                      |  
 |           |                                                      |  
 |           |                                                      |  
 |           |                                                      |  
 |           |               Li                                     |  
 |           |                 S S  S S Li                          |  
 |           |                                                      |  
 |           |                                                      |  
 |           |                                                      |  
 |           |                                                      |  
 |           |                                                      |  
 |           .------------------------------------------------------.  
 |          /                                                      /   
 |         /                                                      /    
 |        /                                                      /     
 |       /                                                      /      
 |      /                                                      /       
 |     /                                                      /        
 |    /                                                      /         
 |   /                                                      /          
 |  /                                                      /           
 | /                                                      /            
 |/                                                      /             
 *------------------------------------------------------*              

Positions:
   0 Li     8.884666   10.000000   10.000000    ( 0.0000,  0.0000,  0.0000)
   1 Li    13.615334   10.000000   10.000000    ( 0.0000,  0.0000,  0.0000)
   2 S     10.774908   10.000000   10.000000    ( 0.0000,  0.0000,  0.0000)
   3 S     11.725092   10.000000   10.000000    ( 0.0000,  0.0000,  0.0000)
   4 S     12.640776   10.000000   10.000000    ( 0.0000,  0.0000,  0.0000)
   5 S      9.859224   10.000000   10.000000    ( 0.0000,  0.0000,  0.0000)

Unit cell:
           periodic     x           y           z      points  spacing
  1. axis:    no    22.500000    0.000000    0.000000   112     0.2009
  2. axis:    no     0.000000   20.000000    0.000000   100     0.2000
  3. axis:    no     0.000000    0.000000   20.000000   100     0.2000

  Lengths:  22.500000  20.000000  20.000000
  Angles:   90.000000  90.000000  90.000000

Effective grid spacing dv^(1/3) = 0.2003

     iter     time        total  log10-change:
                         energy  eigst   dens
iter:   1 22:37:33   418.332009       c
iter:   2 22:37:36   418.643624       c -1.14
iter:   3 22:37:38   418.738779       c -1.37
iter:   4 22:37:40   418.760140       c -1.77
iter:   5 22:37:43   418.760683       c -2.69
iter:   6 22:37:45   418.760756c      c -3.02
iter:   7 22:37:47   418.760772c      c -3.29
iter:   8 22:37:50   418.760773c      c -3.91
iter:   9 22:37:52   418.760774c      c -4.11c

Converged after 9 iterations.

Dipole moment: (-0.000000, 0.000000, 0.000000) |e|*Ang

Energy contributions relative to reference atoms: (reference = -43836.055231)

Kinetic:       +1071.270343
Potential:     -534.545682
External:        +0.000000
XC:            -118.927790
Entropy (-ST):   +0.000000
Local:           +0.963903
--------------------------
Free energy:   +418.760774
Extrapolated:  +418.760774

 Band  Eigenvalues  Occupancy
    0    -35.90873    2.00000
    1    -29.06832    2.00000
    2    -24.85484    2.00000
    3    -24.85484    2.00000
    4    -23.98521    2.00000
    5    -20.41861    2.00000
    6    -20.41861    2.00000
    7    -12.50838    2.00000
    8    -12.50838    2.00000
    9    -10.40305    2.00000
   10     -6.95425    2.00000
   11     -3.64988    2.00000
   12     -3.64988    2.00000
   13     -2.20057    0.00000
   14     -1.86842    0.00000
   15      0.44392    0.00000
   16      0.44392    0.00000
   17      1.09697    0.00000
   18      1.76518    0.00000
   19      3.55046    0.00000

Fermi level: -2.92523

Gap: 1.449 eV
Transition (v -> c):
  (s=0, k=0, n=12, [0.00, 0.00, 0.00]) -> (s=0, k=0, n=13, [0.00, 0.00, 0.00])

Forces in eV/Ang:
  0 Li  -95.11367   -0.00000    0.00000
  1 Li   95.11367    0.00000    0.00000
  2 S    62.37790    0.00000    0.00000
  3 S   -62.37790    0.00000    0.00000
  4 S   391.69269    0.00000    0.00000
  5 S  -391.69269    0.00000    0.00000

System changes: positions 

Initializing position-dependent things.

Density initialized from wave functions
             .------------------------------------------------------.  
            /|                                                      |  
           / |                                                      |  
          /  |                                                      |  
         /   |                                                      |  
        /    |                                                      |  
       /     |                                                      |  
      /      |                                                      |  
     /       |                                                      |  
    /        |                                                      |  
   /         |                                                      |  
  /          |                                                      |  
 *           |                                                      |  
 |           |                                                      |  
 |           |                                                      |  
 |           |                                                      |  
 |           |                                                      |  
 |           |                                                      |  
 |           |              Li                                      |  
 |           |                 S S  S S  Li                         |  
 |           |                                                      |  
 |           |                                                      |  
 |           |                                                      |  
 |           |                                                      |  
 |           |                                                      |  
 |           .------------------------------------------------------.  
 |          /                                                      /   
 |         /                                                      /    
 |        /                                                      /     
 |       /                                                      /      
 |      /                                                      /       
 |     /                                                      /        
 |    /                                                      /         
 |   /                                                      /          
 |  /                                                      /           
 | /                                                      /            
 |/                                                      /             
 *------------------------------------------------------*              

Positions:
   0 Li     8.684666   10.000000   10.000000    ( 0.0000,  0.0000,  0.0000)
   1 Li    13.815334   10.000000   10.000000    ( 0.0000,  0.0000,  0.0000)
   2 S     10.744539   10.000000   10.000000    ( 0.0000,  0.0000,  0.0000)
   3 S     11.755461   10.000000   10.000000    ( 0.0000,  0.0000,  0.0000)
   4 S     12.734938   10.000000   10.000000    ( 0.0000,  0.0000,  0.0000)
   5 S      9.765062   10.000000   10.000000    ( 0.0000,  0.0000,  0.0000)

Unit cell:
           periodic     x           y           z      points  spacing
  1. axis:    no    22.500000    0.000000    0.000000   112     0.2009
  2. axis:    no     0.000000   20.000000    0.000000   100     0.2000
  3. axis:    no     0.000000    0.000000   20.000000   100     0.2000

  Lengths:  22.500000  20.000000  20.000000
  Angles:   90.000000  90.000000  90.000000

Effective grid spacing dv^(1/3) = 0.2003

     iter     time        total  log10-change:
                         energy  eigst   dens
iter:   1 22:37:54   322.574165       c
iter:   2 22:37:57   323.026162       c -1.16
iter:   3 22:37:59   323.134539       c -1.48
iter:   4 22:38:01   323.156569       c -1.84
iter:   5 22:38:04   323.156712       c -2.93
iter:   6 22:38:06   323.156726c      c -3.44
iter:   7 22:38:08   323.156737c      c -3.59
iter:   8 22:38:10   323.156737c      c -4.35c

Converged after 8 iterations.

Dipole moment: (0.000000, 0.000000, 0.000000) |e|*Ang

Energy contributions relative to reference atoms: (reference = -43836.055231)

Kinetic:       +928.288633
Potential:     -497.966300
External:        +0.000000
XC:            -106.886268
Entropy (-ST):   +0.000000
Local:           -0.279327
--------------------------
Free energy:   +323.156737
Extrapolated:  +323.156737

 Band  Eigenvalues  Occupancy
    0    -36.77548    2.00000
    1    -30.79753    2.00000
    2    -26.00964    2.00000
    3    -23.67358    2.00000
    4    -23.67358    2.00000
    5    -19.15836    2.00000
    6    -19.15836    2.00000
    7    -11.32057    2.00000
    8    -11.32057    2.00000
    9    -11.29786    2.00000
   10     -9.10524    2.00000
   11     -3.20322    2.00000
   12     -3.20322    2.00000
   13     -1.87155    0.00000
   14     -1.72272    0.00000
   15      0.62460    0.00000
   16      0.62460    0.00000
   17      0.96713    0.00000
   18      1.00854    0.00000
   19      3.35768    0.00000

Fermi level: -2.53739

Gap: 1.332 eV
Transition (v -> c):
  (s=0, k=0, n=12, [0.00, 0.00, 0.00]) -> (s=0, k=0, n=13, [0.00, 0.00, 0.00])

Forces in eV/Ang:
  0 Li  -70.22940   -0.00000    0.00000
  1 Li   70.22940    0.00000    0.00000
  2 S    40.25857   -0.00000    0.00000
  3 S   -40.25857    0.00000    0.00000
  4 S   310.44535   -0.00000    0.00000
  5 S  -310.44535   -0.00000    0.00000

System changes: positions 

Initializing position-dependent things.

Density initialized from wave functions
             .------------------------------------------------------.  
            /|                                                      |  
           / |                                                      |  
          /  |                                                      |  
         /   |                                                      |  
        /    |                                                      |  
       /     |                                                      |  
      /      |                                                      |  
     /       |                                                      |  
    /        |                                                      |  
   /         |                                                      |  
  /          |                                                      |  
 *           |                                                      |  
 |           |                                                      |  
 |           |                                                      |  
 |           |                                                      |  
 |           |                                                      |  
 |           |                                                      |  
 |           |              Li                                      |  
 |           |                 S S  S S  Li                         |  
 |           |                                                      |  
 |           |                                                      |  
 |           |                                                      |  
 |           |                                                      |  
 |           |                                                      |  
 |           .------------------------------------------------------.  
 |          /                                                      /   
 |         /                                                      /    
 |        /                                                      /     
 |       /                                                      /      
 |      /                                                      /       
 |     /                                                      /        
 |    /                                                      /         
 |   /                                                      /          
 |  /                                                      /           
 | /                                                      /            
 |/                                                      /             
 *------------------------------------------------------*              

Positions:
   0 Li     8.484666   10.000000   10.000000    ( 0.0000,  0.0000,  0.0000)
   1 Li    14.015334   10.000000   10.000000    ( 0.0000,  0.0000,  0.0000)
   2 S     10.711118   10.000000   10.000000    ( 0.0000,  0.0000,  0.0000)
   3 S     11.788882   10.000000   10.000000    ( 0.0000,  0.0000,  0.0000)
   4 S     12.831084   10.000000   10.000000    ( 0.0000,  0.0000,  0.0000)
   5 S      9.668916   10.000000   10.000000    ( 0.0000,  0.0000,  0.0000)

Unit cell:
           periodic     x           y           z      points  spacing
  1. axis:    no    22.500000    0.000000    0.000000   112     0.2009
  2. axis:    no     0.000000   20.000000    0.000000   100     0.2000
  3. axis:    no     0.000000    0.000000   20.000000   100     0.2000

  Lengths:  22.500000  20.000000  20.000000
  Angles:   90.000000  90.000000  90.000000

Effective grid spacing dv^(1/3) = 0.2003

     iter     time        total  log10-change:
                         energy  eigst   dens
iter:   1 22:38:13   247.682338       c
iter:   2 22:38:15   247.998554       c -1.27
iter:   3 22:38:18   248.086921       c -1.61
iter:   4 22:38:20   248.108927       c -1.92
iter:   5 22:38:22   248.109022       c -3.11
iter:   6 22:38:24   248.109031c      c -3.46
iter:   7 22:38:27   248.109033c      c -3.61
iter:   8 22:38:29   248.109033c      c -4.00
iter:   9 22:38:31   248.109034c      c -4.11c

Converged after 9 iterations.

Dipole moment: (-0.000000, -0.000000, -0.000000) |e|*Ang

Energy contributions relative to reference atoms: (reference = -43836.055231)

Kinetic:       +781.942332
Potential:     -438.084529
External:        +0.000000
XC:             -94.701492
Entropy (-ST):   +0.000000
Local:           -1.047276
--------------------------
Free energy:   +248.109034
Extrapolated:  +248.109034

 Band  Eigenvalues  Occupancy
    0    -36.77128    2.00000
    1    -31.64830    2.00000
    2    -27.33636    2.00000
    3    -22.35615    2.00000
    4    -22.35615    2.00000
    5    -17.97231    2.00000
    6    -17.97231    2.00000
    7    -11.95230    2.00000
    8    -10.52031    2.00000
    9    -10.37015    2.00000
   10    -10.37015    2.00000
   11     -2.93585    2.00000
   12     -2.93585    2.00000
   13     -1.66960    0.00000
   14     -1.54474    0.00000
   15      0.46448    0.00000
   16      0.77035    0.00000
   17      0.77035    0.00000
   18      1.28984    0.00000
   19      3.03391    0.00000

Fermi level: -2.30273

Gap: 1.266 eV
Transition (v -> c):
  (s=0, k=0, n=12, [0.00, 0.00, 0.00]) -> (s=0, k=0, n=13, [0.00, 0.00, 0.00])

Forces in eV/Ang:
  0 Li  -49.74834    0.00000    0.00000
  1 Li   49.74834    0.00000    0.00000
  2 S    34.83864   -0.00000    0.00000
  3 S   -34.83864   -0.00000    0.00000
  4 S   251.17404   -0.00000    0.00000
  5 S  -251.17404    0.00000    0.00000

System changes: positions 

Initializing position-dependent things.

Density initialized from wave functions
             .------------------------------------------------------.  
            /|                                                      |  
           / |                                                      |  
          /  |                                                      |  
         /   |                                                      |  
        /    |                                                      |  
       /     |                                                      |  
      /      |                                                      |  
     /       |                                                      |  
    /        |                                                      |  
   /         |                                                      |  
  /          |                                                      |  
 *           |                                                      |  
 |           |                                                      |  
 |           |                                                      |  
 |           |                                                      |  
 |           |                                                      |  
 |           |                                                      |  
 |           |                                                      |  
 |           |             Li S  S  S  S  Li                        |  
 |           |                                                      |  
 |           |                                                      |  
 |           |                                                      |  
 |           |                                                      |  
 |           |                                                      |  
 |           .------------------------------------------------------.  
 |          /                                                      /   
 |         /                                                      /    
 |        /                                                      /     
 |       /                                                      /      
 |      /                                                      /       
 |     /                                                      /        
 |    /                                                      /         
 |   /                                                      /          
 |  /                                                      /           
 | /                                                      /            
 |/                                                      /             
 *------------------------------------------------------*              

Positions:
   0 Li     8.284666   10.000000   10.000000    ( 0.0000,  0.0000,  0.0000)
   1 Li    14.215334   10.000000   10.000000    ( 0.0000,  0.0000,  0.0000)
   2 S     10.676869   10.000000   10.000000    ( 0.0000,  0.0000,  0.0000)
   3 S     11.823131   10.000000   10.000000    ( 0.0000,  0.0000,  0.0000)
   4 S     12.927913   10.000000   10.000000    ( 0.0000,  0.0000,  0.0000)
   5 S      9.572087   10.000000   10.000000    ( 0.0000,  0.0000,  0.0000)

Unit cell:
           periodic     x           y           z      points  spacing
  1. axis:    no    22.500000    0.000000    0.000000   112     0.2009
  2. axis:    no     0.000000   20.000000    0.000000   100     0.2000
  3. axis:    no     0.000000    0.000000   20.000000   100     0.2000

  Lengths:  22.500000  20.000000  20.000000
  Angles:   90.000000  90.000000  90.000000

Effective grid spacing dv^(1/3) = 0.2003

     iter     time        total  log10-change:
                         energy  eigst   dens
iter:   1 22:38:34   189.399003       c
iter:   2 22:38:36   189.624372       c -1.38
iter:   3 22:38:39   189.701892       c -1.71
iter:   4 22:38:41   189.722475       c -1.98
iter:   5 22:38:43   189.722827       c -2.85
iter:   6 22:38:45   189.722980c      c -3.11
iter:   7 22:38:48   189.722991c      c -3.53
iter:   8 22:38:50   189.722991c      c -3.99
iter:   9 22:38:52   189.722992c      c -4.10c

Converged after 9 iterations.

Dipole moment: (0.000000, 0.000000, 0.000000) |e|*Ang

Energy contributions relative to reference atoms: (reference = -43836.055231)

Kinetic:       +649.753409
Potential:     -375.063806
External:        +0.000000
XC:             -83.561922
Entropy (-ST):   +0.000000
Local:           -1.404689
--------------------------
Free energy:   +189.722992
Extrapolated:  +189.722992

 Band  Eigenvalues  Occupancy
    0    -36.09686    2.00000
    1    -31.75295    2.00000
    2    -27.90532    2.00000
    3    -20.94354    2.00000
    4    -20.94354    2.00000
    5    -16.77289    2.00000
    6    -16.77289    2.00000
    7    -12.38147    2.00000
    8    -11.34972    2.00000
    9     -9.50193    2.00000
   10     -9.50193    2.00000
   11     -2.74645    2.00000
   12     -2.74645    2.00000
   13     -1.53158    0.00000
   14     -1.38203    0.00000
   15      0.05602    0.00000
   16      0.88631    0.00000
   17      0.88631    0.00000
   18      1.77413    0.00000
   19      2.70146    0.00000

Fermi level: -2.13901

Gap: 1.215 eV
Transition (v -> c):
  (s=0, k=0, n=12, [0.00, 0.00, 0.00]) -> (s=0, k=0, n=13, [0.00, 0.00, 0.00])

Forces in eV/Ang:
  0 Li  -34.57247   -0.00000    0.00000
  1 Li   34.57247   -0.00000    0.00000
  2 S    32.62108    0.00000    0.00000
  3 S   -32.62108   -0.00000    0.00000
  4 S   204.79536    0.00000    0.00000
  5 S  -204.79536    0.00000    0.00000

System changes: positions 

Initializing position-dependent things.

Density initialized from wave functions
             .------------------------------------------------------.  
            /|                                                      |  
           / |                                                      |  
          /  |                                                      |  
         /   |                                                      |  
        /    |                                                      |  
       /     |                                                      |  
      /      |                                                      |  
     /       |                                                      |  
    /        |                                                      |  
   /         |                                                      |  
  /          |                                                      |  
 *           |                                                      |  
 |           |                                                      |  
 |           |                                                      |  
 |           |                                                      |  
 |           |                                                      |  
 |           |                                                      |  
 |           |                                                      |  
 |           |             Li S  S  S  S  Li                        |  
 |           |                                                      |  
 |           |                                                      |  
 |           |                                                      |  
 |           |                                                      |  
 |           |                                                      |  
 |           .------------------------------------------------------.  
 |          /                                                      /   
 |         /                                                      /    
 |        /                                                      /     
 |       /                                                      /      
 |      /                                                      /       
 |     /                                                      /        
 |    /                                                      /         
 |   /                                                      /          
 |  /                                                      /           
 | /                                                      /            
 |/                                                      /             
 *------------------------------------------------------*              

Positions:
   0 Li     8.084666   10.000000   10.000000    ( 0.0000,  0.0000,  0.0000)
   1 Li    14.415334   10.000000   10.000000    ( 0.0000,  0.0000,  0.0000)
   2 S     10.642420   10.000000   10.000000    ( 0.0000,  0.0000,  0.0000)
   3 S     11.857580   10.000000   10.000000    ( 0.0000,  0.0000,  0.0000)
   4 S     13.025021   10.000000   10.000000    ( 0.0000,  0.0000,  0.0000)
   5 S      9.474979   10.000000   10.000000    ( 0.0000,  0.0000,  0.0000)

Unit cell:
           periodic     x           y           z      points  spacing
  1. axis:    no    22.500000    0.000000    0.000000   112     0.2009
  2. axis:    no     0.000000   20.000000    0.000000   100     0.2000
  3. axis:    no     0.000000    0.000000   20.000000   100     0.2000

  Lengths:  22.500000  20.000000  20.000000
  Angles:   90.000000  90.000000  90.000000

Effective grid spacing dv^(1/3) = 0.2003

     iter     time        total  log10-change:
                         energy  eigst   dens
iter:   1 22:38:55   144.104403       c
iter:   2 22:38:57   144.262992       c -1.50
iter:   3 22:39:00   144.330660       c -1.77
iter:   4 22:39:02   144.347130       c -2.05
iter:   5 22:39:04   144.347724       c -2.75
iter:   6 22:39:06   144.348026c      c -2.99
iter:   7 22:39:09   144.348033c      c -3.62
iter:   8 22:39:11   144.348033c      c -4.14c

Converged after 8 iterations.

Dipole moment: (-0.000000, 0.000000, 0.000000) |e|*Ang

Energy contributions relative to reference atoms: (reference = -43836.055231)

Kinetic:       +534.893021
Potential:     -315.458945
External:        +0.000000
XC:             -73.629198
Entropy (-ST):   +0.000000
Local:           -1.456844
--------------------------
Free energy:   +144.348033
Extrapolated:  +144.348033

 Band  Eigenvalues  Occupancy
    0    -35.00664    2.00000
    1    -31.32283    2.00000
    2    -27.85377    2.00000
    3    -19.50137    2.00000
    4    -19.50137    2.00000
    5    -15.57863    2.00000
    6    -15.57863    2.00000
    7    -12.63363    2.00000
    8    -11.80159    2.00000
    9     -8.69984    2.00000
   10     -8.69984    2.00000
   11     -2.61101    2.00000
   12     -2.61101    2.00000
   13     -1.47735    0.00000
   14     -1.27666    0.00000
   15     -0.37374    0.00000
   16      0.95980    0.00000
   17      0.95980    0.00000
   18      2.34001    0.00000
   19      2.38863    0.00000

Fermi level: -2.04418

Gap: 1.134 eV
Transition (v -> c):
  (s=0, k=0, n=12, [0.00, 0.00, 0.00]) -> (s=0, k=0, n=13, [0.00, 0.00, 0.00])

Forces in eV/Ang:
  0 Li  -23.56654    0.00000    0.00000
  1 Li   23.56654    0.00000    0.00000
  2 S    30.55702   -0.00000    0.00000
  3 S   -30.55702    0.00000    0.00000
  4 S   167.38978    0.00000    0.00000
  5 S  -167.38978   -0.00000    0.00000

System changes: positions 

Initializing position-dependent things.

Density initialized from wave functions
             .------------------------------------------------------.  
            /|                                                      |  
           / |                                                      |  
          /  |                                                      |  
         /   |                                                      |  
        /    |                                                      |  
       /     |                                                      |  
      /      |                                                      |  
     /       |                                                      |  
    /        |                                                      |  
   /         |                                                      |  
  /          |                                                      |  
 *           |                                                      |  
 |           |                                                      |  
 |           |                                                      |  
 |           |                                                      |  
 |           |                                                      |  
 |           |                                                      |  
 |           |                                                      |  
 |           |            Li  S  S  S  S   Li                       |  
 |           |                                                      |  
 |           |                                                      |  
 |           |                                                      |  
 |           |                                                      |  
 |           |                                                      |  
 |           .------------------------------------------------------.  
 |          /                                                      /   
 |         /                                                      /    
 |        /                                                      /     
 |       /                                                      /      
 |      /                                                      /       
 |     /                                                      /        
 |    /                                                      /         
 |   /                                                      /          
 |  /                                                      /           
 | /                                                      /            
 |/                                                      /             
 *------------------------------------------------------*              

Positions:
   0 Li     7.884666   10.000000   10.000000    ( 0.0000,  0.0000,  0.0000)
   1 Li    14.615334   10.000000   10.000000    ( 0.0000,  0.0000,  0.0000)
   2 S     10.607943   10.000000   10.000000    ( 0.0000,  0.0000,  0.0000)
   3 S     11.892057   10.000000   10.000000    ( 0.0000,  0.0000,  0.0000)
   4 S     13.122275   10.000000   10.000000    ( 0.0000,  0.0000,  0.0000)
   5 S      9.377725   10.000000   10.000000    ( 0.0000,  0.0000,  0.0000)

Unit cell:
           periodic     x           y           z      points  spacing
  1. axis:    no    22.500000    0.000000    0.000000   112     0.2009
  2. axis:    no     0.000000   20.000000    0.000000   100     0.2000
  3. axis:    no     0.000000    0.000000   20.000000   100     0.2000

  Lengths:  22.500000  20.000000  20.000000
  Angles:   90.000000  90.000000  90.000000

Effective grid spacing dv^(1/3) = 0.2003

     iter     time        total  log10-change:
                         energy  eigst   dens
iter:   1 22:39:14   108.941874       c
iter:   2 22:39:16   109.045392       c -1.62
iter:   3 22:39:18   109.100157       c -1.83
iter:   4 22:39:20   109.110950       c -2.16
iter:   5 22:39:23   109.111612c      c -2.75
iter:   6 22:39:25   109.111922c      c -2.99
iter:   7 22:39:27   109.111925c      c -3.77
iter:   8 22:39:29   109.111925c      c -4.14c

Converged after 8 iterations.

Dipole moment: (-0.000000, -0.000000, 0.000000) |e|*Ang

Energy contributions relative to reference atoms: (reference = -43836.055231)

Kinetic:       +436.837721
Potential:     -261.555596
External:        +0.000000
XC:             -64.850246
Entropy (-ST):   +0.000000
Local:           -1.319955
--------------------------
Free energy:   +109.111925
Extrapolated:  +109.111925

 Band  Eigenvalues  Occupancy
    0    -33.68680    2.00000
    1    -30.53643    2.00000
    2    -27.33387    2.00000
    3    -18.07674    2.00000
    4    -18.07674    2.00000
    5    -14.41880    2.00000
    6    -14.41880    2.00000
    7    -12.75709    2.00000
    8    -12.01406    2.00000
    9     -7.97365    2.00000
   10     -7.97365    2.00000
   11     -2.51952    2.00000
   12     -2.51952    2.00000
   13     -1.57796    0.00000
   14     -1.24492    0.00000
   15     -0.79037    0.00000
   16      0.97983    0.00000
   17      0.97983    0.00000
   18      2.09612    0.00000
   19      2.09612    0.00000

Fermi level: -2.04874

Gap: 0.942 eV
Transition (v -> c):
  (s=0, k=0, n=12, [0.00, 0.00, 0.00]) -> (s=0, k=0, n=13, [0.00, 0.00, 0.00])

Forces in eV/Ang:
  0 Li  -15.57755   -0.00000    0.00000
  1 Li   15.57755    0.00000    0.00000
  2 S    28.06775    0.00000    0.00000
  3 S   -28.06775   -0.00000    0.00000
  4 S   136.84181   -0.00000    0.00000
  5 S  -136.84181   -0.00000    0.00000

System changes: positions 

Initializing position-dependent things.

Density initialized from wave functions
             .------------------------------------------------------.  
            /|                                                      |  
           / |                                                      |  
          /  |                                                      |  
         /   |                                                      |  
        /    |                                                      |  
       /     |                                                      |  
      /      |                                                      |  
     /       |                                                      |  
    /        |                                                      |  
   /         |                                                      |  
  /          |                                                      |  
 *           |                                                      |  
 |           |                                                      |  
 |           |                                                      |  
[...]

Forces in eV/Ang:
  0 Li   -9.82766    0.00000    0.00000
  1 Li    9.82766    0.00000    0.00000
  2 S    25.45645   -0.00000    0.00000
  3 S   -25.45645    0.00000    0.00000
  4 S   111.75131   -0.00000    0.00000
  5 S  -111.75131   -0.00000    0.00000

System changes: positions 

Initializing position-dependent things.

Density initialized from wave functions
             .------------------------------------------------------.  
            /|                                                      |  
           / |                                                      |  
          /  |                                                      |  
         /   |                                                      |  
        /    |                                                      |  
       /     |                                                      |  
      /      |                                                      |  
     /       |                                                      |  
    /        |                                                      |  
   /         |                                                      |  
  /          |                                                      |  
 *           |                                                      |  
 |           |                                                      |  
 |           |                                                      |  
 |           |                                                      |  
 |           |                                                      |  
 |           |                                                      |  
 |           |                                                      |  
 |           |           Li  S   S  S   S   Li                      |  
 |           |                                                      |  
 |           |                                                      |  
 |           |                                                      |  
 |           |                                                      |  
 |           |                                                      |  
 |           .------------------------------------------------------.  
 |          /                                                      /   
 |         /                                                      /    
 |        /                                                      /     
 |       /                                                      /      
 |      /                                                      /       
 |     /                                                      /        
 |    /                                                      /         
 |   /                                                      /          
 |  /                                                      /           
 | /                                                      /            
 |/                                                      /             
 *------------------------------------------------------*              

Positions:
   0 Li     7.484666   10.000000   10.000000    ( 0.0000,  0.0000,  0.0000)
   1 Li    15.015334   10.000000   10.000000    ( 0.0000,  0.0000,  0.0000)
   2 S     10.538971   10.000000   10.000000    ( 0.0000,  0.0000,  0.0000)
   3 S     11.961029   10.000000   10.000000    ( 0.0000,  0.0000,  0.0000)
   4 S     13.317100   10.000000   10.000000    ( 0.0000,  0.0000,  0.0000)
   5 S      9.182900   10.000000   10.000000    ( 0.0000,  0.0000,  0.0000)

Unit cell:
           periodic     x           y           z      points  spacing
  1. axis:    no    22.500000    0.000000    0.000000   112     0.2009
  2. axis:    no     0.000000   20.000000    0.000000   100     0.2000
  3. axis:    no     0.000000    0.000000   20.000000   100     0.2000

  Lengths:  22.500000  20.000000  20.000000
  Angles:   90.000000  90.000000  90.000000

Effective grid spacing dv^(1/3) = 0.2003

     iter     time        total  log10-change:
                         energy  eigst   dens
iter:   1 22:39:51    60.578952       c
iter:   2 22:39:53    60.614595       c -1.82
iter:   3 22:39:55    60.627064       c -1.97
iter:   4 22:39:58    60.616035c      c -1.14
iter:   5 22:40:00    60.588723       c -1.14
iter:   6 22:40:02    60.406878       c -1.09
iter:   7 22:40:04    60.561428       c -1.22
iter:   8 22:40:07    60.592622       c -1.55
iter:   9 22:40:09    60.613396       c -1.66
iter:  10 22:40:11    60.620664       c -1.15
iter:  11 22:40:14    60.632873       c -1.83
iter:  12 22:40:16    60.637388       c -1.97
iter:  13 22:40:18    60.586770       c -2.06
iter:  14 22:40:21    60.640476       c -1.15
iter:  15 22:40:23    60.643466       c -2.15
iter:  16 22:40:25    60.643780c      c -2.30
iter:  17 22:40:27    60.588745       c -2.33
iter:  18 22:40:30    60.644516       c -1.15
iter:  19 22:40:32    60.643160       c -2.42
iter:  20 22:40:34    60.643212c      c -1.18
iter:  21 22:40:37    60.644508c      c -1.18
iter:  22 22:40:39    60.644510c      c -2.42
iter:  23 22:40:41    60.644520c      c -2.42
iter:  24 22:40:43    60.597324       c -2.42
iter:  25 22:40:46    60.642742       c -1.15
iter:  26 22:40:48    60.644530       c -1.18
iter:  27 22:40:50    60.644455c      c -2.42
iter:  28 22:40:53    60.644443c      c -1.18
iter:  29 22:40:55    60.644529c      c -1.18
iter:  30 22:40:57    60.644530c      c -2.42
iter:  31 22:40:59    60.644533c      c -2.42
iter:  32 22:41:02    60.592492       c -2.42
iter:  33 22:41:04    60.644504       c -1.15
iter:  34 22:41:06    60.642742       c -2.42
iter:  35 22:41:09    60.643444c      c -1.18
iter:  36 22:41:11    60.644078c      c -1.18
iter:  37 22:41:13    60.635205c      c -2.35
iter:  38 22:41:15    60.642622c      c -1.17
iter:  39 22:41:18    60.642876c      c -1.18
iter:  40 22:41:20    60.637797c      c -2.24
iter:  41 22:41:22    60.644532c      c -2.01
iter:  42 22:41:25    60.592178       c -2.42
iter:  43 22:41:27    60.639224       c -1.15
iter:  44 22:41:29    60.644429       c -1.17
iter:  45 22:41:31    60.355565       c -1.18
iter:  46 22:41:34    60.473029       c -1.20
iter:  47 22:41:36    60.598234       c -1.34
iter:  48 22:41:38    60.595032       c -1.66
iter:  49 22:41:41    60.619703       c -1.15
iter:  50 22:41:43    60.626033       c -1.79
iter:  51 22:41:45    60.631875c      c -1.85
iter:  52 22:41:47    60.592209       c -1.93
iter:  53 22:41:50    60.630806       c -1.15
iter:  54 22:41:52    60.634651       c -1.91
iter:  55 22:41:54    60.633738c      c -1.98
iter:  56 22:41:57    60.592447       c -1.96
iter:  57 22:41:59    60.636959       c -1.15
iter:  58 22:42:01    60.634907       c -2.03
iter:  59 22:42:04    60.636492c      c -1.98
iter:  60 22:42:06    60.592646       c -2.02
iter:  61 22:42:08    60.633535       c -1.15
iter:  62 22:42:10    60.634928       c -1.96
iter:  63 22:42:13    60.637674c      c -1.98
iter:  64 22:42:15    60.592786       c -2.04
iter:  65 22:42:17    60.636223       c -1.15
iter:  66 22:42:20    60.637458       c -2.01
iter:  67 22:42:22    60.639366c      c -2.04
iter:  68 22:42:24    60.592886       c -2.09
iter:  69 22:42:27    60.638938       c -1.15
iter:  70 22:42:29    60.640282       c -2.08
iter:  71 22:42:31    60.639824c      c -2.13
iter:  72 22:42:34    60.592764       c -2.11
iter:  73 22:42:36    60.640927       c -1.15
iter:  74 22:42:38    60.642068       c -2.15
iter:  75 22:42:41    60.642021c      c -2.21
iter:  76 22:42:43    60.592640       c -2.21
iter:  77 22:42:45    60.642649       c -1.15
iter:  78 22:42:47    60.643330       c -2.24
iter:  79 22:42:50    60.643254c      c -2.29
iter:  80 22:42:52    60.592568       c -2.29
iter:  81 22:42:54    60.643609       c -1.15
iter:  82 22:42:57    60.644272       c -2.32
iter:  83 22:42:59    60.644163c      c -2.39
iter:  84 22:43:01    60.592537       c -2.38
iter:  85 22:43:04    60.644392       c -1.15
iter:  86 22:43:06    60.642072       c -2.41
iter:  87 22:43:08    60.644263c      c -1.18
iter:  88 22:43:10    60.644329c      c -1.18
iter:  89 22:43:13    60.369576       c -1.18
iter:  90 22:43:15    60.528565       c -1.24
iter:  91 22:43:17    60.596752       c -1.44
iter:  92 22:43:20    60.600704       c -1.65
iter:  93 22:43:22    60.621173       c -1.15
iter:  94 22:43:24    60.630103       c -1.80
iter:  95 22:43:27    60.631783c      c -1.90
iter:  96 22:43:29    60.592529       c -1.93
iter:  97 22:43:31    60.635692       c -1.15
iter:  98 22:43:34    60.636817       c -2.00
iter:  99 22:43:36    60.636259c      c -2.02
iter: 100 22:43:38    60.592487       c -2.01
iter: 101 22:43:40    60.638626       c -1.15
iter: 102 22:43:43    60.638996       c -2.07
iter: 103 22:43:45    60.640032c      c -2.08
iter: 104 22:43:47    60.592624       c -2.12
iter: 105 22:43:50    60.640025       c -1.15
iter: 106 22:43:52    60.641120       c -2.12
iter: 107 22:43:54    60.641684c      c -2.16
iter: 108 22:43:57    60.592595       c -2.19
iter: 109 22:43:59    60.641445       c -1.15
iter: 110 22:44:01    60.641934       c -2.18
iter: 111 22:44:03    60.642689c      c -2.20
iter: 112 22:44:06    60.592580       c -2.25
iter: 113 22:44:08    60.642307       c -1.15
iter: 114 22:44:10    60.642421       c -2.22
iter: 115 22:44:13    60.643019c      c -2.23
iter: 116 22:44:15    60.592573       c -2.27
iter: 117 22:44:17    60.643117       c -1.15
iter: 118 22:44:20    60.643526       c -2.28
iter: 119 22:44:22    60.643212c      c -2.31
iter: 120 22:44:24    60.592562       c -2.28
iter: 121 22:44:26    60.643449       c -1.15
iter: 122 22:44:29    60.644111       c -2.30
iter: 123 22:44:31    60.643876c      c -2.37
iter: 124 22:44:33    60.592558       c -2.34
iter: 125 22:44:36    60.644108       c -1.15
iter: 126 22:44:38    60.644089       c -2.37
iter: 127 22:44:40    60.643735c      c -2.37
iter: 128 22:44:42    60.592542       c -2.33
iter: 129 22:44:45    60.644182       c -1.15
iter: 130 22:44:47    60.644504       c -2.38
iter: 131 22:44:49    60.644418c      c -2.42
iter: 132 22:44:52    60.592538       c -2.41
iter: 133 22:44:54    60.644200       c -1.15
iter: 134 22:44:56    60.643882       c -1.18
iter: 135 22:44:59    60.293900       c -1.18
iter: 136 22:45:01    60.525711       c -1.21
iter: 137 22:45:03    60.626426       c -1.45
iter: 138 22:45:06    60.599952       c -1.86
iter: 139 22:45:08    60.630143       c -1.15
iter: 140 22:45:10    60.636013       c -1.90
iter: 141 22:45:12    60.636185c      c -2.01
iter: 142 22:45:15    60.594420       c -2.01
iter: 143 22:45:17    60.638116       c -1.15
iter: 144 22:45:19    60.640425       c -2.06
iter: 145 22:45:22    60.642904c      c -2.13
iter: 146 22:45:24    60.592592       c -2.26
iter: 147 22:45:26    60.643693       c -1.15
iter: 148 22:45:29    60.636675       c -2.33
iter: 149 22:45:31    60.644014c      c -1.17
iter: 150 22:45:33    60.638325c      c -2.36
iter: 151 22:45:35    60.644308c      c -1.17
iter: 152 22:45:38    60.643369c      c -2.40
iter: 153 22:45:40    60.643113c      c -2.30
iter: 154 22:45:42    60.593105       c -2.27
iter: 155 22:45:45    60.643729       c -1.15
iter: 156 22:45:47    60.643985       c -2.33
iter: 157 22:45:49    60.644027c      c -2.36
iter: 158 22:45:52    60.592759       c -2.36
iter: 159 22:45:54    60.643975       c -1.15
iter: 160 22:45:56    60.644132       c -2.35
iter: 161 22:45:59    60.644373c      c -2.37
iter: 162 22:46:01    60.592515       c -2.40
iter: 163 22:46:03    60.644249       c -1.15
iter: 164 22:46:05    60.644380       c -2.39
iter: 165 22:46:08    60.644240c      c -2.40
iter: 166 22:46:10    60.592490       c -2.39
iter: 167 22:46:12    60.644442       c -1.15
iter: 168 22:46:15    60.644406       c -2.41
iter: 169 22:46:17    60.644510c      c -2.41
iter: 170 22:46:19    60.592528       c -2.42
iter: 171 22:46:22    60.644401       c -1.15
iter: 172 22:46:24    60.644436       c -2.41
iter: 173 22:46:26    60.643139c      c -2.41
iter: 174 22:46:29    60.614170       c -1.18
iter: 175 22:46:31    60.643663       c -1.16
iter: 176 22:46:33    60.374543       c -1.18
iter: 177 22:46:35    60.518289       c -1.23
iter: 178 22:46:38    60.599966       c -1.42
iter: 179 22:46:40    60.597487       c -1.66
iter: 180 22:46:42    60.621424       c -1.15
iter: 181 22:46:45    60.629331       c -1.81
iter: 182 22:46:47    60.631217c      c -1.89
iter: 183 22:46:49    60.592402       c -1.92
iter: 184 22:46:52    60.635408       c -1.15
iter: 185 22:46:54    60.640078       c -1.99
iter: 186 22:46:56    60.640919c      c -2.12
iter: 187 22:46:58    60.592677       c -2.15
iter: 188 22:47:01    60.643725       c -1.15
iter: 189 22:47:03    60.640047       c -2.33
iter: 190 22:47:05    60.643998c      c -1.17
iter: 191 22:47:08    60.616840       c -2.36
iter: 192 22:47:10    60.644219       c -1.16
iter: 193 22:47:12    60.635221       c -2.38
iter: 194 22:47:15    60.644406c      c -1.17
iter: 195 22:47:17    60.612207       c -2.41
iter: 196 22:47:19    60.644086       c -1.16
iter: 197 22:47:21    60.644106       c -1.18
iter: 198 22:47:24    60.366803       c -1.18
iter: 199 22:47:26    60.466484       c -1.21
iter: 200 22:47:28    60.605925       c -1.32
iter: 201 22:47:31    60.599965       c -1.70
iter: 202 22:47:33    60.622181       c -1.15
iter: 203 22:47:35    60.623792       c -1.82
iter: 204 22:47:38    60.637711       c -1.83
iter: 205 22:47:40    60.592554       c -2.04
iter: 206 22:47:42    60.634080       c -1.15
iter: 207 22:47:45    60.636326       c -1.97
iter: 208 22:47:47    60.638425c      c -2.01
iter: 209 22:47:49    60.592799       c -2.06
iter: 210 22:47:51    60.637929       c -1.15
iter: 211 22:47:54    60.639031       c -2.05
iter: 212 22:47:56    60.640671c      c -2.08
iter: 213 22:47:58    60.592808       c -2.14
iter: 214 22:48:01    60.639854       c -1.15
iter: 215 22:48:03    60.640613       c -2.11
iter: 216 22:48:05    60.641180c      c -2.14
iter: 217 22:48:08    60.592714       c -2.16
iter: 218 22:48:10    60.641485       c -1.15
iter: 219 22:48:12    60.642184       c -2.18
iter: 220 22:48:14    60.641123c      c -2.22
iter: 221 22:48:17    60.592624       c -2.16
iter: 222 22:48:19    60.641580       c -1.15
iter: 223 22:48:21    60.642897       c -2.18
iter: 224 22:48:24    60.642768c      c -2.26
iter: 225 22:48:26    60.592601       c -2.25
iter: 226 22:48:28    60.643279       c -1.15
iter: 227 22:48:30    60.643234       c -2.29
iter: 228 22:48:33    60.643561c      c -2.29
iter: 229 22:48:35    60.592569       c -2.31
iter: 230 22:48:37    60.643377       c -1.15
iter: 231 22:48:40    60.643506       c -2.30
iter: 232 22:48:42    60.643915c      c -2.31
iter: 233 22:48:44    60.592553       c -2.35
iter: 234 22:48:46    60.644181       c -1.15
iter: 235 22:48:49    60.644233       c -2.38
iter: 236 22:48:51    60.644260c      c -2.38
iter: 237 22:48:53    60.592537       c -2.39
iter: 238 22:48:56    60.644436       c -1.15
iter: 239 22:48:58    60.643232       c -2.41
iter: 240 22:49:00    60.643612c      c -1.18
iter: 241 22:49:03    60.643674c      c -1.18
iter: 242 22:49:05    60.364341       c -1.18
iter: 243 22:49:07    60.528583       c -1.24
iter: 244 22:49:09    60.596458       c -1.45
iter: 245 22:49:12    60.600218       c -1.65
iter: 246 22:49:14    60.620864       c -1.15
iter: 247 22:49:16    60.630049       c -1.80
iter: 248 22:49:19    60.631801c      c -1.90
iter: 249 22:49:21    60.592616       c -1.93
iter: 250 22:49:23    60.635716       c -1.15
iter: 251 22:49:25    60.636893       c -2.00
iter: 252 22:49:28    60.636404c      c -2.02
iter: 253 22:49:30    60.592509       c -2.01
iter: 254 22:49:32    60.638775       c -1.15
iter: 255 22:49:34    60.639239       c -2.08
iter: 256 22:49:37    60.640402c      c -2.09
iter: 257 22:49:39    60.592615       c -2.13
iter: 258 22:49:41    60.640215       c -1.15
iter: 259 22:49:44    60.641109       c -2.12
iter: 260 22:49:46    60.641913c      c -2.16
iter: 261 22:49:48    60.592591       c -2.20
iter: 262 22:49:50    60.641486       c -1.15
iter: 263 22:49:53    60.641761       c -2.18
iter: 264 22:49:55    60.642613c      c -2.19
iter: 265 22:49:57    60.592582       c -2.24
iter: 266 22:50:00    60.642438       c -1.15
iter: 267 22:50:02    60.642782       c -2.23
iter: 268 22:50:04    60.643524c      c -2.25
iter: 269 22:50:06    60.592579       c -2.31
iter: 270 22:50:09    60.643230       c -1.15
iter: 271 22:50:11    60.643477       c -2.29
iter: 272 22:50:13    60.643618c      c -2.31
iter: 273 22:50:16    60.592564       c -2.32
iter: 274 22:50:18    60.643735       c -1.15
iter: 275 22:50:20    60.644001       c -2.33
iter: 276 22:50:22    60.643749c      c -2.36
iter: 277 22:50:25    60.592548       c -2.33
iter: 278 22:50:27    60.643969       c -1.15
iter: 279 22:50:29    60.644147       c -2.35
iter: 280 22:50:32    60.644120c      c -2.37
iter: 281 22:50:34    60.592542       c -2.37
iter: 282 22:50:36    60.644184       c -1.15
iter: 283 22:50:38    60.644371       c -2.38
iter: 284 22:50:41    60.644212c      c -2.40
iter: 285 22:50:43    60.592535       c -2.38
iter: 286 22:50:46    60.644363       c -1.15
iter: 287 22:50:48    60.643900       c -2.40
iter: 288 22:50:50    60.644527c      c -1.18
iter: 289 22:50:53    60.592004       c -2.43
iter: 290 22:50:55    60.642188       c -1.15
iter: 291 22:50:57    60.642188       c -1.18
iter: 292 22:51:00    60.367206       c -1.18
iter: 293 22:51:02    60.546903       c -1.24
iter: 294 22:51:04    60.601201       c -1.49
iter: 295 22:51:07    60.597339       c -1.67
iter: 296 22:51:09    60.625416       c -1.15
iter: 297 22:51:11    60.632070       c -1.85
iter: 298 22:51:14    60.633850c      c -1.93
iter: 299 22:51:16    60.592310       c -1.96
iter: 300 22:51:18    60.636927       c -1.15
iter: 301 22:51:21    60.638467       c -2.03
iter: 302 22:51:23    60.638266c      c -2.07
iter: 303 22:51:25    60.592676       c -2.06
iter: 304 22:51:27    60.640303       c -1.15
iter: 305 22:51:30    60.641089       c -2.13
iter: 306 22:51:32    60.641402c      c -2.16
iter: 307 22:51:34    60.592639       c -2.17
iter: 308 22:51:37    60.641574       c -1.15
iter: 309 22:51:39    60.642609       c -2.18
iter: 310 22:51:41    60.642766c      c -2.24
iter: 311 22:51:43    60.592610       c -2.25
iter: 312 22:51:46    60.642964       c -1.15
iter: 313 22:51:48    60.643350       c -2.27
iter: 314 22:51:50    60.642266c      c -2.30
iter: 315 22:51:53    60.592577       c -2.22
iter: 316 22:51:55    60.642667       c -1.15
iter: 317 22:51:57    60.643083       c -2.24
iter: 318 22:52:00    60.643229c      c -2.27
iter: 319 22:52:02    60.592572       c -2.29
iter: 320 22:52:04    60.643684       c -1.15
iter: 321 22:52:07    60.643892       c -2.32
iter: 322 22:52:09    60.643820c      c -2.35
iter: 323 22:52:11    60.592548       c -2.34
iter: 324 22:52:14    60.643946       c -1.15
iter: 325 22:52:16    60.644352       c -2.35
iter: 326 22:52:18    60.644296c      c -2.40
iter: 327 22:52:21    60.592541       c -2.39
iter: 328 22:52:23    60.644491       c -1.15
iter: 329 22:52:25    60.644482       c -2.42
iter: 330 22:52:28    60.643446c      c -2.42
iter: 331 22:52:30    60.588511       c -1.18
iter: 332 22:52:32    60.642889       c -1.15
iter: 333 22:52:34    60.366965       c -1.18

Did not converge!

Here are some tips:

1) Make sure the geometry and spin-state is physically sound.
2) Use less aggressive density mixing.
3) Solve the eigenvalue problem more accurately at each scf-step.
4) Use a smoother distribution function for the occupation numbers.
5) Try adding more empty states.
6) Use enough k-points.
7) Don't let your structure optimization algorithm take too large steps.
8) Solve the Poisson equation more accurately.
9) Better initial guess for the wave functions.

See details here:

    https://wiki.fysik.dtu.dk/gpaw/documentation/convergence.html


