
  ___ ___ ___ _ _ _  
 |   |   |_  | | | | 
 | | | | | . | | | | 
 |__ |  _|___|_____|  22.1.0
 |___|_|             

User:   ameerracle@ameer-Mint-B450-AORUS-PRO-WIFI
Date:   Mon Feb  6 19:33:22 2023
Arch:   x86_64
Pid:    14295
Python: 3.10.6
gpaw:   /usr/lib/python3/dist-packages/gpaw
_gpaw:  /usr/lib/python3/dist-packages/_gpaw.cpython-310-x86_64-linux-gnu.so
ase:    /usr/lib/python3/dist-packages/ase (version 3.22.1)
numpy:  /home/ameerracle/.local/lib/python3.10/site-packages/numpy (version 1.23.5)
scipy:  /home/ameerracle/.local/lib/python3.10/site-packages/scipy (version 1.10.0)
libxc:  5.1.7
units:  Angstrom and eV
cores: 1
OpenMP: False
OMP_NUM_THREADS: 1

Input parameters:
  kpts: [8 8 1]
  mode: {ecut: 400.0,
         name: pw}
  xc: PBE

System changes: positions, numbers, cell, pbc, initial_charges, initial_magmoms 

Initialize ...

Pt-setup:
  name: Platinum
  id: 5ed695806aff0c961dba1a84acd7f4b2
  Z: 78.0
  valence: 16
  core: 62
  charge: 0.0
  file: /usr/share/gpaw-setups/Pt.PBE.gz
  compensation charges: gauss, rc=0.41, lmax=2
  cutoffs: 2.26(filt), 2.26(core),
  valence states:
                energy  radius
    6s(1.00)    -5.628   1.307
    5p(6.00)   -56.051   1.371
    6p(0.00)    -0.845   1.371
    5d(9.00)    -6.153   1.307
    *s          21.583   1.307
    *d          21.058   1.307

  Using partial waves for Pt as LCAO basis

Reference energy: -8006005.804279

Spin-paired calculation

Convergence criteria:
 Maximum [total energy] change in last 3 cyles: 0.0005 eV / electron
 Maximum integral of absolute [dens]ity change: 0.0001 electrons / valence electron
 Maximum integral of absolute [eigenst]ate change: 4e-08 eV^2 / valence electron
 Maximum number of scf [iter]ations: 333
 (Square brackets indicate name in SCF output, whereas a 'c' in
 the SCF output indicates the quantity has converged.)

Symmetries present (total): 24

  ( 1  0  0)  ( 1  0  0)  ( 1  0  0)  ( 1  0  0)  ( 1 -1  0)  ( 1 -1  0)
  ( 1 -1  0)  ( 1 -1  0)  ( 0  1  0)  ( 0  1  0)  ( 1  0  0)  ( 1  0  0)
  ( 0  0  1)  ( 0  0 -1)  ( 0  0  1)  ( 0  0 -1)  ( 0  0  1)  ( 0  0 -1)

  ( 1 -1  0)  ( 1 -1  0)  ( 0  1  0)  ( 0  1  0)  ( 0  1  0)  ( 0  1  0)
  ( 0 -1  0)  ( 0 -1  0)  ( 1  0  0)  ( 1  0  0)  (-1  1  0)  (-1  1  0)
  ( 0  0  1)  ( 0  0 -1)  ( 0  0  1)  ( 0  0 -1)  ( 0  0  1)  ( 0  0 -1)

  ( 0 -1  0)  ( 0 -1  0)  ( 0 -1  0)  ( 0 -1  0)  (-1  1  0)  (-1  1  0)
  ( 1 -1  0)  ( 1 -1  0)  (-1  0  0)  (-1  0  0)  ( 0  1  0)  ( 0  1  0)
  ( 0  0  1)  ( 0  0 -1)  ( 0  0  1)  ( 0  0 -1)  ( 0  0  1)  ( 0  0 -1)

  (-1  1  0)  (-1  1  0)  (-1  0  0)  (-1  0  0)  (-1  0  0)  (-1  0  0)
  (-1  0  0)  (-1  0  0)  ( 0 -1  0)  ( 0 -1  0)  (-1  1  0)  (-1  1  0)
  ( 0  0  1)  ( 0  0 -1)  ( 0  0  1)  ( 0  0 -1)  ( 0  0  1)  ( 0  0 -1)
Note: your k-points are not as symmetric as your crystal!

64 k-points: 8 x 8 x 1 Monkhorst-Pack grid
20 k-points in the irreducible part of the Brillouin zone
       k-points in crystal coordinates                weights
   0:     0.06250000   -0.06250000    0.00000000          2/64
   1:     0.06250000    0.06250000    0.00000000          2/64
   2:     0.18750000   -0.18750000    0.00000000          2/64
   3:     0.18750000   -0.06250000    0.00000000          4/64
   4:     0.18750000    0.06250000    0.00000000          4/64
   5:     0.18750000    0.18750000    0.00000000          2/64
   6:     0.31250000   -0.31250000    0.00000000          2/64
   7:     0.31250000   -0.18750000    0.00000000          4/64
   8:     0.31250000   -0.06250000    0.00000000          4/64
   9:     0.31250000    0.06250000    0.00000000          4/64
          ...
  19:     0.43750000    0.43750000    0.00000000          2/64

Wave functions: Plane wave expansion
  Cutoff energy: 400.000 eV
  Number of coefficients (min, max): 41255, 41339
  Pulay-stress correction: 0.000000 eV/Ang^3 (de/decut=0.000000)
  Using FFTW library
  ScaLapack parameters: grid=1x1, blocksize=None
  Wavefunction extrapolation:
    Improved wavefunction reuse through dual PAW basis 

Occupation numbers: Fermi-Dirac: width=0.1000 eV
 

Eigensolver
   Davidson(niter=2) 

Densities:
  Coarse grid: 54*54*96 grid
  Fine grid: 108*108*192 grid
  Total Charge: 0.000000 

Density mixing:
  Method: separate
  Backend: pulay
  Linear mixing parameter: 0.05
  Mixing with 5 old densities
  Damping of long wave oscillations: 50 

Hamiltonian:
  XC and Coulomb potentials evaluated on a 108*108*192 grid
  Using the PBE Exchange-Correlation functional
  External potential:
    NoExternalPotential
 

XC parameters: PBE with 2 nearest neighbor stencil

Memory estimate:
  Process memory now: 2578.96 MiB
  Calculator: 2389.34 MiB
    Density: 120.55 MiB
      Arrays: 55.53 MiB
      Localized functions: 43.66 MiB
      Mixer: 21.36 MiB
    Hamiltonian: 37.20 MiB
      Arrays: 36.31 MiB
      XC: 0.00 MiB
      Poisson: 0.00 MiB
      vbar: 0.89 MiB
    Wavefunctions: 2231.60 MiB
      Arrays psit_nG: 1993.27 MiB
      Eigensolver: 106.63 MiB
      Projections: 13.89 MiB
      Projectors: 94.51 MiB
      PW-descriptor: 23.29 MiB

Total number of cores used: 1

Number of atoms: 16
Number of atomic orbitals: 192
Number of bands in calculation: 158
Number of valence electrons: 256
Bands to converge: occupied

... initialized

Initializing position-dependent things.

Density initialized from atomic densities
Creating initial wave functions:
  158 bands from LCAO basis set

                                                    
                                                    
                                                    
                                                    
                      Pt     Pt     Pt     Pt       
                 Pt     Pt     Pt     Pt            
                                                    
            Pt     Pt     Pt     Pt                 
       Pt     Pt     Pt     Pt                      
                                                    
                                                    
                                                    
                                                    

Positions:
   0 Pt     0.000000    0.000000   10.000000    ( 0.0000,  0.0000,  0.0000)
   1 Pt     2.863782    0.000000   10.000000    ( 0.0000,  0.0000,  0.0000)
   2 Pt     5.727565    0.000000   10.000000    ( 0.0000,  0.0000,  0.0000)
   3 Pt     8.591347    0.000000   10.000000    ( 0.0000,  0.0000,  0.0000)
   4 Pt     1.431891    2.480108   10.000000    ( 0.0000,  0.0000,  0.0000)
   5 Pt     4.295674    2.480108   10.000000    ( 0.0000,  0.0000,  0.0000)
   6 Pt     7.159456    2.480108   10.000000    ( 0.0000,  0.0000,  0.0000)
   7 Pt    10.023239    2.480108   10.000000    ( 0.0000,  0.0000,  0.0000)
   8 Pt     2.863782    4.960217   10.000000    ( 0.0000,  0.0000,  0.0000)
   9 Pt     5.727565    4.960217   10.000000    ( 0.0000,  0.0000,  0.0000)
  10 Pt     8.591347    4.960217   10.000000    ( 0.0000,  0.0000,  0.0000)
  11 Pt    11.455130    4.960217   10.000000    ( 0.0000,  0.0000,  0.0000)
  12 Pt     4.295674    7.440325   10.000000    ( 0.0000,  0.0000,  0.0000)
  13 Pt     7.159456    7.440325   10.000000    ( 0.0000,  0.0000,  0.0000)
  14 Pt    10.023239    7.440325   10.000000    ( 0.0000,  0.0000,  0.0000)
  15 Pt    12.887021    7.440325   10.000000    ( 0.0000,  0.0000,  0.0000)

Unit cell:
           periodic     x           y           z      points  spacing
  1. axis:    yes   11.455130    0.000000    0.000000    54     0.1837
  2. axis:    yes    5.727565    9.920433    0.000000    54     0.1837
  3. axis:    no     0.000000    0.000000   20.000000    96     0.2083

  Lengths:  11.455130  11.455130  20.000000
  Angles:   90.000000  90.000000  60.000000

Effective grid spacing dv^(1/3) = 0.2010

     iter     time        total  log10-change:
                         energy  eigst   dens
iter:   1 19:37:38   -87.182935
iter:   2 19:39:55   -85.527388  -1.38  -1.35
iter:   3 19:42:11   -80.555509  -0.84  -1.40
iter:   4 19:44:27   -80.226530  -2.13  -1.88
iter:   5 19:46:45   -80.110327  -2.22  -1.93
iter:   6 19:49:00   -80.090843  -2.21  -2.09
iter:   7 19:51:16   -80.180019c -2.55  -2.45
iter:   8 19:53:33   -80.066156c -2.50  -2.33
iter:   9 19:55:51   -80.065830c -3.24  -2.97
iter:  10 19:58:07   -80.071424c -3.33  -3.22
iter:  11 20:00:23   -80.066325c -3.63  -3.12
iter:  12 20:02:36   -80.066102c -3.94  -3.85
iter:  13 20:04:49   -80.066370c -4.20  -3.95
iter:  14 20:07:02   -80.066787c -4.41  -4.06c
iter:  15 20:09:19   -80.066385c -4.68  -3.98
iter:  16 20:11:37   -80.066488c -4.94  -4.24c
iter:  17 20:13:56   -80.066630c -5.15  -4.52c
iter:  18 20:16:16   -80.066570c -5.42  -4.63c
iter:  19 20:18:36   -80.066562c -5.67  -5.13c
iter:  20 20:20:54   -80.066559c -5.91  -5.25c
iter:  21 20:23:13   -80.066530c -6.11  -5.26c
iter:  22 20:25:32   -80.066521c -6.37  -5.28c
iter:  23 20:27:50   -80.066510c -6.61  -5.48c
iter:  24 20:30:07   -80.066511c -6.86  -5.62c
iter:  25 20:32:23   -80.066510c -7.07  -5.62c
iter:  26 20:34:40   -80.066509c -7.29  -5.71c
iter:  27 20:36:57   -80.066512c -7.53c -5.84c

Converged after 27 iterations.

Dipole moment: (0.000000, 0.000000, 0.000000) |e|*Ang

Energy contributions relative to reference atoms: (reference = -8006005.804279)

Kinetic:       -357.518423
Potential:     +289.904937
External:        +0.000000
XC:              -3.377473
Entropy (-ST):   -1.516056
Local:           -8.317525
--------------------------
Free energy:    -80.824540
Extrapolated:   -80.066512

Showing only first 2 kpts
 Kpt  Band  Eigenvalues  Occupancy
  0   126     -4.72622    1.41662
  0   127     -4.72622    1.41662
  0   128     -4.67920    1.20552
  0   129     -4.67920    1.20552

  1   126     -4.72991    1.43178
  1   127     -4.70453    1.32313
  1   128     -4.70453    1.32313
  1   129     -4.68902    1.25204


Fermi level: -4.63750

No gap

Forces in eV/Ang:
  0 Pt   -0.00000   -0.00000    0.00000
  1 Pt   -0.00001    0.00000    0.00000
  2 Pt    0.00000    0.00000    0.00000
  3 Pt    0.00001    0.00000    0.00000
  4 Pt   -0.00000   -0.00001    0.00000
  5 Pt   -0.00000   -0.00000    0.00000
  6 Pt    0.00000   -0.00000    0.00000
  7 Pt    0.00000   -0.00001    0.00000
  8 Pt    0.00000    0.00000    0.00000
  9 Pt    0.00000    0.00000    0.00000
 10 Pt    0.00000    0.00000    0.00000
 11 Pt   -0.00000   -0.00000    0.00000
 12 Pt    0.00000    0.00001    0.00000
 13 Pt   -0.00000    0.00001    0.00000
 14 Pt   -0.00000    0.00000    0.00000
 15 Pt    0.00000    0.00000    0.00000

Timing:                              incl.     excl.
-----------------------------------------------------------
Forces:                             19.376    19.376   0.4% |
Hamiltonian:                         1.350     0.004   0.0% |
 Atomic:                             0.686     0.001   0.0% |
  XC Correction:                     0.684     0.684   0.0% |
 Calculate atomic Hamiltonians:      0.266     0.266   0.0% |
 Communicate:                        0.000     0.000   0.0% |
 Initialize Hamiltonian:             0.000     0.000   0.0% |
 Poisson:                            0.005     0.005   0.0% |
 XC 3D grid:                         0.389     0.389   0.0% |
LCAO initialization:               108.318     0.039   0.0% |
 LCAO eigensolver:                   1.610     0.002   0.0% |
  Calculate projections:             0.064     0.064   0.0% |
  DenseAtomicCorrection:             0.066     0.066   0.0% |
  Distribute overlap matrix:         0.004     0.004   0.0% |
  Orbital Layouts:                   0.871     0.871   0.0% |
  Potential matrix:                  0.473     0.473   0.0% |
  Sum over cells:                    0.130     0.130   0.0% |
 LCAO to grid:                     105.509   105.509   2.4% ||
 Set positions (LCAO WFS):           1.161     0.087   0.0% |
  Basic WFS set positions:           0.008     0.008   0.0% |
  Basis functions set positions:     0.000     0.000   0.0% |
  P tci:                             0.969     0.969   0.0% |
  ST tci:                            0.080     0.080   0.0% |
  mktci:                             0.016     0.016   0.0% |
PWDescriptor:                        0.141     0.141   0.0% |
SCF-cycle:                        3702.524     0.168   0.0% |
 Davidson:                        3468.340   724.412  16.8% |------|
  Apply H:                         342.229   335.391   7.8% |--|
   HMM T:                            6.838     6.838   0.2% |
  Subspace diag:                   633.867     0.061   0.0% |
   calc_h_matrix:                  448.891   105.825   2.4% ||
    Apply H:                       343.066   336.184   7.8% |--|
     HMM T:                          6.881     6.881   0.2% |
   diagonalize:                      9.269     9.269   0.2% |
   rotate_psi:                     175.647   175.647   4.1% |-|
  calc. matrices:                 1376.472   691.611  16.0% |-----|
   Apply H:                        684.861   670.797  15.5% |-----|
    HMM T:                          14.064    14.064   0.3% |
  diagonalize:                      49.134    49.134   1.1% |
  rotate_psi:                      342.226   342.226   7.9% |--|
 Density:                          184.684     0.000   0.0% |
  Atomic density matrices:           1.260     1.260   0.0% |
  Mix:                               8.832     8.832   0.2% |
  Multipole moments:                 0.007     0.007   0.0% |
  Pseudo density:                  174.584   171.153   4.0% |-|
   Symmetrize density:               3.431     3.431   0.1% |
 Hamiltonian:                       34.686     0.089   0.0% |
  Atomic:                           17.088     0.045   0.0% |
   XC Correction:                   17.043    17.043   0.4% |
  Calculate atomic Hamiltonians:     7.114     7.114   0.2% |
  Communicate:                       0.000     0.000   0.0% |
  Poisson:                           0.125     0.125   0.0% |
  XC 3D grid:                       10.270    10.270   0.2% |
 Orthonormalize:                    14.646     0.003   0.0% |
  calc_s_matrix:                     2.042     2.042   0.0% |
  inverse-cholesky:                  3.405     3.405   0.1% |
  projections:                       5.603     5.603   0.1% |
  rotate_psi_s:                      3.594     3.594   0.1% |
Set symmetry:                        0.007     0.007   0.0% |
Other:                             488.843   488.843  11.3% |----|
-----------------------------------------------------------
Total:                                      4320.559 100.0%

Memory usage: 4.26 GiB
Date: Mon Feb  6 20:45:22 2023
