
  ___ ___ ___ _ _ _  
 |   |   |_  | | | | 
 | | | | | . | | | | 
 |__ |  _|___|_____|  22.1.0
 |___|_|             

User:   ameerracle@ameer-Mint-B450-AORUS-PRO-WIFI
Date:   Mon Feb  6 23:02:27 2023
Arch:   x86_64
Pid:    42564
Python: 3.10.6
gpaw:   /usr/lib/python3/dist-packages/gpaw
_gpaw:  /usr/lib/python3/dist-packages/_gpaw.cpython-310-x86_64-linux-gnu.so
ase:    /usr/lib/python3/dist-packages/ase (version 3.22.1)
numpy:  /home/ameerracle/.local/lib/python3.10/site-packages/numpy (version 1.23.5)
scipy:  /home/ameerracle/.local/lib/python3.10/site-packages/scipy (version 1.10.0)
libxc:  5.1.7
units:  Angstrom and eV
cores: 1
OpenMP: False
OMP_NUM_THREADS: 1

Input parameters:
  h: 0.2
  mode: lcao
  xc: PBE

System changes: positions, numbers, cell, pbc, initial_charges, initial_magmoms 

Initialize ...

S-setup:
  name: Sulfur
  id: ca434db9faa07220b7a1d8cb6886b7a9
  Z: 16.0
  valence: 6
  core: 10
  charge: 0.0
  file: /usr/share/gpaw-setups/S.PBE.gz
  compensation charges: gauss, rc=0.24, lmax=2
  cutoffs: 1.77(filt), 1.66(core),
  valence states:
                energy  radius
    3s(2.00)   -17.254   0.974
    3p(4.00)    -7.008   0.979
    *s           9.957   0.974
    *p          20.203   0.979
    *d           0.000   0.900

  Using partial waves for S as LCAO basis

Reference energy: -86860.959180

Spin-paired calculation

Convergence criteria:
 Maximum [total energy] change in last 3 cyles: 0.0005 eV / electron
 Maximum integral of absolute [dens]ity change: 0.0001 electrons / valence electron
 Maximum integral of absolute [eigenst]ate change: 4e-08 eV^2 / valence electron
 Maximum number of scf [iter]ations: 333
 (Square brackets indicate name in SCF output, whereas a 'c' in
 the SCF output indicates the quantity has converged.)

Symmetries present (total): 48

  ( 1  0  0)  ( 1  0  0)  ( 1  0  0)  ( 1  0  0)  ( 1  0  0)  ( 1  0  0)
  ( 0  1  0)  ( 0  1  0)  ( 0  0  1)  ( 0  0  1)  ( 0  0 -1)  ( 0  0 -1)
  ( 0  0  1)  ( 0  0 -1)  ( 0  1  0)  ( 0 -1  0)  ( 0  1  0)  ( 0 -1  0)

  ( 1  0  0)  ( 1  0  0)  ( 0  1  0)  ( 0  1  0)  ( 0  1  0)  ( 0  1  0)
  ( 0 -1  0)  ( 0 -1  0)  ( 1  0  0)  ( 1  0  0)  ( 0  0  1)  ( 0  0  1)
  ( 0  0  1)  ( 0  0 -1)  ( 0  0  1)  ( 0  0 -1)  ( 1  0  0)  (-1  0  0)

  ( 0  1  0)  ( 0  1  0)  ( 0  1  0)  ( 0  1  0)  ( 0  0  1)  ( 0  0  1)
  ( 0  0 -1)  ( 0  0 -1)  (-1  0  0)  (-1  0  0)  ( 1  0  0)  ( 1  0  0)
  ( 1  0  0)  (-1  0  0)  ( 0  0  1)  ( 0  0 -1)  ( 0  1  0)  ( 0 -1  0)

  ( 0  0  1)  ( 0  0  1)  ( 0  0  1)  ( 0  0  1)  ( 0  0  1)  ( 0  0  1)
  ( 0  1  0)  ( 0  1  0)  ( 0 -1  0)  ( 0 -1  0)  (-1  0  0)  (-1  0  0)
  ( 1  0  0)  (-1  0  0)  ( 1  0  0)  (-1  0  0)  ( 0  1  0)  ( 0 -1  0)

  ( 0  0 -1)  ( 0  0 -1)  ( 0  0 -1)  ( 0  0 -1)  ( 0  0 -1)  ( 0  0 -1)
  ( 1  0  0)  ( 1  0  0)  ( 0  1  0)  ( 0  1  0)  ( 0 -1  0)  ( 0 -1  0)
  ( 0  1  0)  ( 0 -1  0)  ( 1  0  0)  (-1  0  0)  ( 1  0  0)  (-1  0  0)

  ( 0  0 -1)  ( 0  0 -1)  ( 0 -1  0)  ( 0 -1  0)  ( 0 -1  0)  ( 0 -1  0)
  (-1  0  0)  (-1  0  0)  ( 1  0  0)  ( 1  0  0)  ( 0  0  1)  ( 0  0  1)
  ( 0  1  0)  ( 0 -1  0)  ( 0  0  1)  ( 0  0 -1)  ( 1  0  0)  (-1  0  0)

  ( 0 -1  0)  ( 0 -1  0)  ( 0 -1  0)  ( 0 -1  0)  (-1  0  0)  (-1  0  0)
  ( 0  0 -1)  ( 0  0 -1)  (-1  0  0)  (-1  0  0)  ( 0  1  0)  ( 0  1  0)
  ( 1  0  0)  (-1  0  0)  ( 0  0  1)  ( 0  0 -1)  ( 0  0  1)  ( 0  0 -1)

  (-1  0  0)  (-1  0  0)  (-1  0  0)  (-1  0  0)  (-1  0  0)  (-1  0  0)
  ( 0  0  1)  ( 0  0  1)  ( 0  0 -1)  ( 0  0 -1)  ( 0 -1  0)  ( 0 -1  0)
  ( 0  1  0)  ( 0 -1  0)  ( 0  1  0)  ( 0 -1  0)  ( 0  0  1)  ( 0  0 -1)

1 k-point (Gamma)
1 k-point in the irreducible part of the Brillouin zone
       k-points in crystal coordinates                weights
   0:     0.00000000    0.00000000    0.00000000          1/1

Wave functions: LCAO
  Diagonalizer: Serial LAPACK
  Atomic Correction: dense with blas
  Datatype: float
 

Occupation numbers: width=0.000 eV 

Eigensolver
   LCAO using direct dense diagonalizer 

Densities:
  Coarse grid: 104*104*104 grid
  Fine grid: 208*208*208 grid
  Total Charge: 0.000000 

Density mixing:
  Method: separate
  Backend: pulay
  Linear mixing parameter: 0.25
  Mixing with 3 old densities
  No damping of long wave oscillations 

Hamiltonian:
  XC and Coulomb potentials evaluated on a 208*208*208 grid
  Using the PBE Exchange-Correlation functional
  Interpolation: tri-quintic (5. degree polynomial)
  Poisson solver: FastPoissonSolver using
    Stencil: 6*3+1=19 point O(h^6) finite-difference Laplacian
    FFT axes: []
    FST axes: [0, 1, 2]
 

XC parameters: PBE with 2 nearest neighbor stencil

Memory estimate:
  Process memory now: 912.05 MiB
  Calculator: 441.14 MiB
    Density: 286.63 MiB
      Arrays: 219.69 MiB
      Localized functions: 16.92 MiB
      Mixer: 50.02 MiB
    Hamiltonian: 145.06 MiB
      Arrays: 143.68 MiB
      XC: 0.00 MiB
      Poisson: 0.00 MiB
      vbar: 1.38 MiB
    Wavefunctions: 9.45 MiB
      C [qnM]: 0.01 MiB
      S, T [2 x qmm]: 0.02 MiB
      P [aqMi]: 0.00 MiB
      BasisFunctions: 9.42 MiB
      Eigensolver: 0.00 MiB

Total number of cores used: 1

Number of atoms: 8
Number of atomic orbitals: 32
Number of bands in calculation: 32
Number of valence electrons: 48
Bands to converge: occupied

... initialized

Initializing position-dependent things.

Density initialized from atomic densities
              .---------------------------------------------------.  
             /|                                                   |  
            / |                                                   |  
           /  |                                                   |  
          /   |                                                   |  
         /    |                                                   |  
        /     |                                                   |  
       /      |                                                   |  
      /       |                                                   |  
     /        |                                                   |  
    /         |                                                   |  
   /          |                                                   |  
  /           |                                                   |  
 *            |                                                   |  
 |            |                                                   |  
 |            |                                                   |  
 |            |                                                   |  
 |            |                                                   |  
 |            |                                                   |  
 |            |                 SSSS                              |  
 |            |                 SSSS                              |  
 |            |                                                   |  
 |            |                                                   |  
 |            |                                                   |  
 |            |                                                   |  
 |            |                                                   |  
 |            .---------------------------------------------------.  
 |           /                                                   /   
 |          /                                                   /    
 |         /                                                   /     
 |        /                                                   /      
 |       /                                                   /       
 |      /                                                   /        
 |     /                                                   /         
 |    /                                                   /          
 |   /                                                   /           
 |  /                                                   /            
 | /                                                   /             
 |/                                                   /              
 *---------------------------------------------------*               

Positions:
   0 S     10.000000   10.000000   10.000000    ( 0.0000,  0.0000,  0.0000)
   1 S     11.000000   10.000000   10.000000    ( 0.0000,  0.0000,  0.0000)
   2 S     10.000000   11.000000   10.000000    ( 0.0000,  0.0000,  0.0000)
   3 S     11.000000   11.000000   10.000000    ( 0.0000,  0.0000,  0.0000)
   4 S     10.000000   10.000000   11.000000    ( 0.0000,  0.0000,  0.0000)
   5 S     11.000000   10.000000   11.000000    ( 0.0000,  0.0000,  0.0000)
   6 S     10.000000   11.000000   11.000000    ( 0.0000,  0.0000,  0.0000)
   7 S     11.000000   11.000000   11.000000    ( 0.0000,  0.0000,  0.0000)

Unit cell:
           periodic     x           y           z      points  spacing
  1. axis:    no    21.000000    0.000000    0.000000   104     0.2019
  2. axis:    no     0.000000   21.000000    0.000000   104     0.2019
  3. axis:    no     0.000000    0.000000   21.000000   104     0.2019

  Lengths:  21.000000  21.000000  21.000000
  Angles:   90.000000  90.000000  90.000000

Effective grid spacing dv^(1/3) = 0.2019

     iter     time        total  log10-change:
                         energy  eigst   dens
iter:   1 23:02:34  1380.876800       c
iter:   2 23:02:37  1435.904862       c -0.73
iter:   3 23:02:41  1489.460922       c -0.85
iter:   4 23:02:44  1490.132007       c -1.04
iter:   5 23:02:47  1486.340750       c -1.05
iter:   6 23:02:51  1494.632887       c -0.77
iter:   7 23:02:54  1494.768725       c -1.54
iter:   8 23:02:57  1495.013508       c -1.62
iter:   9 23:03:01  1495.093390       c -1.88
iter:  10 23:03:04  1495.095092       c -2.80
iter:  11 23:03:07  1495.095003c      c -3.04
iter:  12 23:03:11  1495.095426c      c -3.25
iter:  13 23:03:14  1495.095429c      c -4.02c

Converged after 13 iterations.

Dipole moment: (0.000000, 0.000000, 0.000000) |e|*Ang

Energy contributions relative to reference atoms: (reference = -86860.959180)

Kinetic:       +3311.972607
Potential:     -1491.417032
External:        +0.000000
XC:            -321.536679
Entropy (-ST):   +0.000000
Local:           -3.923468
--------------------------
Free energy:   +1495.095429
Extrapolated:  +1495.095429

 Band  Eigenvalues  Occupancy
    0   -126.64446    2.00000
    1    -87.13564    2.00000
    2    -87.13564    2.00000
    3    -87.13564    2.00000
    4    -52.41243    2.00000
    5    -52.41243    2.00000
    6    -52.41243    2.00000
    7    -50.26569    2.00000
    8    -50.26569    2.00000
    9    -40.70480    2.00000
   10    -35.20243    2.00000
   11    -35.20243    2.00000
   12    -35.20243    2.00000
   13    -28.87426    2.00000
   14    -28.87426    2.00000
   15    -28.87426    2.00000
   16    -21.79491    2.00000
   17    -21.79491    2.00000
   18    -21.79491    2.00000
   19    -18.76533    2.00000
   20    -17.58036    2.00000
   21    -17.58036    2.00000
   22    -17.58036    2.00000
   23    -16.60245    2.00000
   24    -16.60245    0.00000
   25    -16.60245    0.00000
   26     -5.47174    0.00000
   27     -5.47174    0.00000
   28     -5.47174    0.00000
   29      1.68593    0.00000
   30      1.68593    0.00000
   31      8.25573    0.00000

Fermi level: -16.60245

Gap: 0.000 eV
Transition (v -> c):
  (s=0, k=0, n=23, [0.00, 0.00, 0.00]) -> (s=0, k=0, n=24, [0.00, 0.00, 0.00])

Forces in eV/Ang:
  0 S  -496.93509 -496.93509 -496.93509
  1 S   496.93509 -496.93509 -496.93509
  2 S  -496.93509  496.93509 -496.93509
  3 S   496.93509  496.93509 -496.93509
  4 S  -496.93509 -496.93509  496.93509
  5 S   496.93509 -496.93509  496.93509
  6 S  -496.93509  496.93509  496.93509
  7 S   496.93509  496.93509  496.93509

System changes: positions 

Initializing position-dependent things.

Density initialized from wave functions
              .---------------------------------------------------.  
             /|                                                   |  
            / |                                                   |  
           /  |                                                   |  
          /   |                                                   |  
         /    |                                                   |  
        /     |                                                   |  
       /      |                                                   |  
      /       |                                                   |  
     /        |                                                   |  
    /         |                                                   |  
   /          |                                                   |  
  /           |                                                   |  
 *            |                                                   |  
 |            |                                                   |  
 |            |                                                   |  
 |            |                                                   |  
 |            |                                                   |  
 |            |                 S  S                              |  
 |            |                 S  S                              |  
 |            |                 S  S                              |  
 |            |                 S  S                              |  
 |            |                                                   |  
 |            |                                                   |  
 |            |                                                   |  
 |            |                                                   |  
 |            .---------------------------------------------------.  
 |           /                                                   /   
 |          /                                                   /    
 |         /                                                   /     
 |        /                                                   /      
 |       /                                                   /       
 |      /                                                   /        
 |     /                                                   /         
 |    /                                                   /          
 |   /                                                   /           
 |  /                                                   /            
 | /                                                   /             
 |/                                                   /              
 *---------------------------------------------------*               

Positions:
   0 S      9.884530    9.884530    9.884530    ( 0.0000,  0.0000,  0.0000)
   1 S     11.115470    9.884530    9.884530    ( 0.0000,  0.0000,  0.0000)
   2 S      9.884530   11.115470    9.884530    ( 0.0000,  0.0000,  0.0000)
   3 S     11.115470   11.115470    9.884530    ( 0.0000,  0.0000,  0.0000)
   4 S      9.884530    9.884530   11.115470    ( 0.0000,  0.0000,  0.0000)
   5 S     11.115470    9.884530   11.115470    ( 0.0000,  0.0000,  0.0000)
   6 S      9.884530   11.115470   11.115470    ( 0.0000,  0.0000,  0.0000)
   7 S     11.115470   11.115470   11.115470    ( 0.0000,  0.0000,  0.0000)

Unit cell:
           periodic     x           y           z      points  spacing
  1. axis:    no    21.000000    0.000000    0.000000   104     0.2019
  2. axis:    no     0.000000   21.000000    0.000000   104     0.2019
  3. axis:    no     0.000000    0.000000   21.000000   104     0.2019

  Lengths:  21.000000  21.000000  21.000000
  Angles:   90.000000  90.000000  90.000000

Effective grid spacing dv^(1/3) = 0.2019

     iter     time        total  log10-change:
                         energy  eigst   dens
iter:   1 23:03:18   547.297366       c
iter:   2 23:03:21   571.011536       c -0.59
iter:   3 23:03:24   599.125239       c -0.73
iter:   4 23:03:28   599.143892       c -1.97
iter:   5 23:03:31   599.195299       c -2.09
iter:   6 23:03:34   599.195319       c -3.58
iter:   7 23:03:38   599.195338c      c -3.69
iter:   8 23:03:41   599.195344c      c -3.95
iter:   9 23:03:44   599.195348c      c -4.16c

Converged after 9 iterations.

Dipole moment: (0.000000, 0.000000, 0.000000) |e|*Ang

Energy contributions relative to reference atoms: (reference = -86860.959180)

Kinetic:       +1965.524526
Potential:     -1141.185210
External:        +0.000000
XC:            -216.657697
Entropy (-ST):   +0.000000
Local:           -8.486270
--------------------------
Free energy:   +599.195348
Extrapolated:  +599.195348

 Band  Eigenvalues  Occupancy
    0    -93.37676    2.00000
    1    -68.96163    2.00000
    2    -68.96163    2.00000
    3    -68.96163    2.00000
    4    -44.42068    2.00000
    5    -44.42068    2.00000
    6    -44.42068    2.00000
    7    -40.45040    2.00000
    8    -40.45040    2.00000
    9    -31.54732    2.00000
   10    -29.90268    2.00000
   11    -29.90268    2.00000
   12    -29.90268    2.00000
   13    -22.77275    2.00000
   14    -22.77275    2.00000
   15    -22.77275    2.00000
   16    -18.82169    2.00000
   17    -18.82169    2.00000
   18    -18.82169    2.00000
   19    -15.05175    2.00000
   20    -14.81243    2.00000
   21    -14.81243    2.00000
   22    -14.81243    2.00000
   23    -11.71084    2.00000
   24    -11.71084    0.00000
   25    -11.71084    0.00000
   26     -4.62870    0.00000
   27     -4.62870    0.00000
   28     -4.62870    0.00000
   29      2.24324    0.00000
   30      2.24324    0.00000
   31     15.74207    0.00000

Fermi level: -11.71084

Gap: 0.000 eV
Transition (v -> c):
  (s=0, k=0, n=23, [0.00, 0.00, 0.00]) -> (s=0, k=0, n=24, [0.00, 0.00, 0.00])

Forces in eV/Ang:
  0 S  -195.54203 -195.54203 -195.54203
  1 S   195.54203 -195.54203 -195.54203
  2 S  -195.54203  195.54203 -195.54203
  3 S   195.54203  195.54203 -195.54203
  4 S  -195.54203 -195.54203  195.54203
  5 S   195.54203 -195.54203  195.54203
  6 S  -195.54203  195.54203  195.54203
  7 S   195.54203  195.54203  195.54203

System changes: positions 

Initializing position-dependent things.

Density initialized from wave functions
              .---------------------------------------------------.  
             /|                                                   |  
            / |                                                   |  
           /  |                                                   |  
          /   |                                                   |  
         /    |                                                   |  
        /     |                                                   |  
       /      |                                                   |  
      /       |                                                   |  
     /        |                                                   |  
    /         |                                                   |  
   /          |                                                   |  
  /           |                                                   |  
 *            |                                                   |  
 |            |                                                   |  
 |            |                                                   |  
 |            |                                                   |  
 |            |                                                   |  
 |            |                 S   S                             |  
 |            |                S   S                              |  
 |            |                 S   S                             |  
 |            |                S   S                              |  
 |            |                                                   |  
 |            |                                                   |  
 |            |                                                   |  
 |            |                                                   |  
 |            .---------------------------------------------------.  
 |           /                                                   /   
 |          /                                                   /    
 |         /                                                   /     
 |        /                                                   /      
 |       /                                                   /       
 |      /                                                   /        
 |     /                                                   /         
 |    /                                                   /          
 |   /                                                   /           
 |  /                                                   /            
 | /                                                   /             
 |/                                                   /              
 *---------------------------------------------------*               

Positions:
   0 S      9.809614    9.809614    9.809614    ( 0.0000,  0.0000,  0.0000)
   1 S     11.190386    9.809614    9.809614    ( 0.0000,  0.0000,  0.0000)
   2 S      9.809614   11.190386    9.809614    ( 0.0000,  0.0000,  0.0000)
   3 S     11.190386   11.190386    9.809614    ( 0.0000,  0.0000,  0.0000)
   4 S      9.809614    9.809614   11.190386    ( 0.0000,  0.0000,  0.0000)
   5 S     11.190386    9.809614   11.190386    ( 0.0000,  0.0000,  0.0000)
   6 S      9.809614   11.190386   11.190386    ( 0.0000,  0.0000,  0.0000)
   7 S     11.190386   11.190386   11.190386    ( 0.0000,  0.0000,  0.0000)

Unit cell:
           periodic     x           y           z      points  spacing
  1. axis:    no    21.000000    0.000000    0.000000   104     0.2019
  2. axis:    no     0.000000   21.000000    0.000000   104     0.2019
  3. axis:    no     0.000000    0.000000   21.000000   104     0.2019

  Lengths:  21.000000  21.000000  21.000000
  Angles:   90.000000  90.000000  90.000000

Effective grid spacing dv^(1/3) = 0.2019

     iter     time        total  log10-change:
                         energy  eigst   dens
iter:   1 23:03:48   321.464224       c
iter:   2 23:03:51   327.246272       c -0.94
iter:   3 23:03:55   333.561900       c -1.08
iter:   4 23:03:58   333.581685       c -2.30
iter:   5 23:04:01   333.584904c      c -2.58
iter:   6 23:04:05   333.584927c      c -3.54
iter:   7 23:04:08   333.584945c      c -3.69
iter:   8 23:04:11   333.584946c      c -4.49c

Converged after 8 iterations.

Dipole moment: (0.000000, 0.000000, 0.000000) |e|*Ang

Energy contributions relative to reference atoms: (reference = -86860.959180)

Kinetic:       +1396.103932
Potential:     -885.629995
External:        +0.000000
XC:            -170.569891
Entropy (-ST):   +0.000000
Local:           -6.319100
--------------------------
Free energy:   +333.584946
Extrapolated:  +333.584946

 Band  Eigenvalues  Occupancy
    0    -73.05633    2.00000
    1    -55.56177    2.00000
    2    -55.56177    2.00000
    3    -55.56177    2.00000
    4    -37.00696    2.00000
    5    -37.00696    2.00000
    6    -37.00696    2.00000
    7    -33.34252    2.00000
    8    -33.34252    2.00000
    9    -25.91081    2.00000
   10    -25.25593    2.00000
   11    -25.25593    2.00000
   12    -25.25593    2.00000
   13    -19.04684    2.00000
   14    -19.04684    2.00000
   15    -19.04684    2.00000
   16    -14.81956    2.00000
   17    -14.81956    2.00000
   18    -14.81956    2.00000
   19    -13.51863    2.00000
   20    -12.68132    2.00000
   21    -12.68132    2.00000
   22    -12.68132    2.00000
   23     -7.89098    2.00000
   24     -7.89098    0.00000
   25     -7.89098    0.00000
   26     -3.06622    0.00000
   27     -3.06622    0.00000
   28     -3.06622    0.00000
   29      2.97356    0.00000
   30      2.97356    0.00000
   31     13.63789    0.00000

Fermi level: -7.89098

Gap: 0.000 eV
Transition (v -> c):
  (s=0, k=0, n=23, [0.00, 0.00, 0.00]) -> (s=0, k=0, n=24, [0.00, 0.00, 0.00])

Forces in eV/Ang:
  0 S  -109.05618 -109.05618 -109.05618
  1 S   109.05618 -109.05618 -109.05618
  2 S  -109.05618  109.05618 -109.05618
  3 S   109.05618  109.05618 -109.05618
  4 S  -109.05618 -109.05618  109.05618
  5 S   109.05618 -109.05618  109.05618
  6 S  -109.05618  109.05618  109.05618
  7 S   109.05618  109.05618  109.05618

System changes: positions 

Initializing position-dependent things.

Density initialized from wave functions
              .---------------------------------------------------.  
             /|                                                   |  
            / |                                                   |  
           /  |                                                   |  
          /   |                                                   |  
         /    |                                                   |  
        /     |                                                   |  
       /      |                                                   |  
      /       |                                                   |  
     /        |                                                   |  
    /         |                                                   |  
   /          |                                                   |  
  /           |                                                   |  
 *            |                                                   |  
 |            |                                                   |  
 |            |                                                   |  
 |            |                                                   |  
 |            |                                                   |  
 |            |                 S   S                             |  
 |            |                S   S                              |  
 |            |                 S   S                             |  
 |            |                S   S                              |  
 |            |                                                   |  
 |            |                                                   |  
 |            |                                                   |  
 |            |                                                   |  
 |            .---------------------------------------------------.  
 |           /                                                   /   
 |          /                                                   /    
 |         /                                                   /     
 |        /                                                   /      
 |       /                                                   /       
 |      /                                                   /        
 |     /                                                   /         
 |    /                                                   /          
 |   /                                                   /           
 |  /                                                   /            
 | /                                                   /             
 |/                                                   /              
 *---------------------------------------------------*               

Positions:
   0 S      9.715146    9.715146    9.715146    ( 0.0000,  0.0000,  0.0000)
   1 S     11.284854    9.715146    9.715146    ( 0.0000,  0.0000,  0.0000)
   2 S      9.715146   11.284854    9.715146    ( 0.0000,  0.0000,  0.0000)
   3 S     11.284854   11.284854    9.715146    ( 0.0000,  0.0000,  0.0000)
   4 S      9.715146    9.715146   11.284854    ( 0.0000,  0.0000,  0.0000)
   5 S     11.284854    9.715146   11.284854    ( 0.0000,  0.0000,  0.0000)
   6 S      9.715146   11.284854   11.284854    ( 0.0000,  0.0000,  0.0000)
   7 S     11.284854   11.284854   11.284854    ( 0.0000,  0.0000,  0.0000)

Unit cell:
           periodic     x           y           z      points  spacing
  1. axis:    no    21.000000    0.000000    0.000000   104     0.2019
  2. axis:    no     0.000000   21.000000    0.000000   104     0.2019
  3. axis:    no     0.000000    0.000000   21.000000   104     0.2019

  Lengths:  21.000000  21.000000  21.000000
  Angles:   90.000000  90.000000  90.000000

Effective grid spacing dv^(1/3) = 0.2019

     iter     time        total  log10-change:
                         energy  eigst   dens
iter:   1 23:04:15   148.654030       c
iter:   2 23:04:18   152.324308       c -1.02
iter:   3 23:04:21   155.954087       c -1.17
iter:   4 23:04:25   155.956952       c -2.42
iter:   5 23:04:28   155.957153c      c -2.69
iter:   6 23:04:31   155.957168c      c -3.54
iter:   7 23:04:35   155.957180c      c -3.69
iter:   8 23:04:38   155.957181c      c -4.32c

Converged after 8 iterations.

Dipole moment: (-0.000000, 0.000000, 0.000000) |e|*Ang

Energy contributions relative to reference atoms: (reference = -86860.959180)

Kinetic:       +901.450677
Potential:     -617.179648
External:        +0.000000
XC:            -125.224991
Entropy (-ST):   +0.000000
Local:           -3.088857
--------------------------
Free energy:   +155.957181
Extrapolated:  +155.957181

 Band  Eigenvalues  Occupancy
    0    -54.85610    2.00000
    1    -43.00113    2.00000
    2    -43.00113    2.00000
    3    -43.00113    2.00000
    4    -30.05689    2.00000
    5    -30.05689    2.00000
    6    -30.05689    2.00000
    7    -26.46806    2.00000
    8    -26.46806    2.00000
    9    -20.78709    2.00000
   10    -20.63172    2.00000
   11    -20.63172    2.00000
   12    -20.63172    2.00000
   13    -15.55382    2.00000
   14    -15.55382    2.00000
   15    -15.55382    2.00000
   16    -13.03290    2.00000
   17    -11.38894    2.00000
   18    -11.38894    2.00000
   19    -11.38894    2.00000
   20    -10.86119    2.00000
   21    -10.86119    2.00000
   22    -10.86119    2.00000
   23     -5.42844    2.00000
   24     -5.42844    0.00000
   25     -5.42844    0.00000
   26     -2.88176    0.00000
   27     -2.88176    0.00000
   28     -2.88176    0.00000
   29      2.14581    0.00000
   30      2.14581    0.00000
   31      7.38106    0.00000

Fermi level: -5.42844

Gap: 0.000 eV
Transition (v -> c):
  (s=0, k=0, n=23, [0.00, 0.00, 0.00]) -> (s=0, k=0, n=24, [0.00, 0.00, 0.00])

Forces in eV/Ang:
  0 S   -54.39974  -54.39974  -54.39974
  1 S    54.39974  -54.39974  -54.39974
  2 S   -54.39974   54.39974  -54.39974
  3 S    54.39974   54.39974  -54.39974
  4 S   -54.39974  -54.39974   54.39974
  5 S    54.39974  -54.39974   54.39974
  6 S   -54.39974   54.39974   54.39974
  7 S    54.39974   54.39974   54.39974

System changes: positions 

Initializing position-dependent things.

Density initialized from wave functions
              .---------------------------------------------------.  
             /|                                                   |  
            / |                                                   |  
           /  |                                                   |  
          /   |                                                   |  
         /    |                                                   |  
        /     |                                                   |  
       /      |                                                   |  
      /       |                                                   |  
     /        |                                                   |  
    /         |                                                   |  
   /          |                                                   |  
  /           |                                                   |  
 *            |                                                   |  
 |            |                                                   |  
 |            |                                                   |  
 |            |                                                   |  
 |            |                                                   |  
 |            |                 S   S                             |  
 |            |                S   S                              |  
 |            |                 S   S                             |  
 |            |                S   S                              |  
 |            |                                                   |  
 |            |                                                   |  
 |            |                                                   |  
 |            |                                                   |  
 |            .---------------------------------------------------.  
 |           /                                                   /   
 |          /                                                   /    
 |         /                                                   /     
 |        /                                                   /      
 |       /                                                   /       
 |      /                                                   /        
 |     /                                                   /         
 |    /                                                   /          
 |   /                                                   /           
 |  /                                                   /            
 | /                                                   /             
 |/                                                   /              
 *---------------------------------------------------*               

Positions:
   0 S      9.621123    9.621123    9.621123    ( 0.0000,  0.0000,  0.0000)
   1 S     11.378877    9.621123    9.621123    ( 0.0000,  0.0000,  0.0000)
   2 S      9.621123   11.378877    9.621123    ( 0.0000,  0.0000,  0.0000)
   3 S     11.378877   11.378877    9.621123    ( 0.0000,  0.0000,  0.0000)
   4 S      9.621123    9.621123   11.378877    ( 0.0000,  0.0000,  0.0000)
   5 S     11.378877    9.621123   11.378877    ( 0.0000,  0.0000,  0.0000)
   6 S      9.621123   11.378877   11.378877    ( 0.0000,  0.0000,  0.0000)
   7 S     11.378877   11.378877   11.378877    ( 0.0000,  0.0000,  0.0000)

Unit cell:
           periodic     x           y           z      points  spacing
  1. axis:    no    21.000000    0.000000    0.000000   104     0.2019
  2. axis:    no     0.000000   21.000000    0.000000   104     0.2019
  3. axis:    no     0.000000    0.000000   21.000000   104     0.2019

  Lengths:  21.000000  21.000000  21.000000
  Angles:   90.000000  90.000000  90.000000

Effective grid spacing dv^(1/3) = 0.2019

     iter     time        total  log10-change:
                         energy  eigst   dens
iter:   1 23:04:42    64.455076       c
iter:   2 23:04:45    65.423881       c -1.27
iter:   3 23:04:48    66.300852       c -1.43
iter:   4 23:04:51    66.299702       c -2.58
iter:   5 23:04:55    66.299757c      c -3.51
iter:   6 23:04:58    66.299758c      c -4.19c

Converged after 6 iterations.

Dipole moment: (-0.000000, -0.000000, -0.000000) |e|*Ang

Energy contributions relative to reference atoms: (reference = -86860.959180)

Kinetic:       +581.123455
Potential:     -422.449132
External:        +0.000000
XC:             -91.218668
Entropy (-ST):   +0.000000
Local:           -1.155897
--------------------------
Free energy:    +66.299758
Extrapolated:   +66.299758

 Band  Eigenvalues  Occupancy
    0    -42.40539    2.00000
    1    -34.17756    2.00000
    2    -34.17756    2.00000
    3    -34.17756    2.00000
    4    -25.14276    2.00000
    5    -25.14276    2.00000
    6    -25.14276    2.00000
    7    -21.29952    2.00000
    8    -21.29952    2.00000
    9    -17.20468    2.00000
   10    -17.02592    2.00000
   11    -17.02592    2.00000
   12    -17.02592    2.00000
   13    -13.33406    2.00000
   14    -13.18939    2.00000
   15    -13.18939    2.00000
   16    -13.18939    2.00000
   17     -9.82502    2.00000
   18     -9.82502    2.00000
   19     -9.82502    2.00000
   20     -9.21339    2.00000
   21     -9.21339    2.00000
   22     -9.21339    2.00000
   23     -4.44485    2.00000
   24     -4.44485    0.00000
   25     -4.44485    0.00000
   26     -3.44400    0.00000
   27     -3.44400    0.00000
   28     -3.44400    0.00000
   29      0.69365    0.00000
   30      0.69365    0.00000
   31      2.65290    0.00000

Fermi level: -4.44485

Gap: 0.000 eV
Transition (v -> c):
  (s=0, k=0, n=23, [0.00, 0.00, 0.00]) -> (s=0, k=0, n=24, [0.00, 0.00, 0.00])

Forces in eV/Ang:
  0 S   -28.00154  -28.00154  -28.00154
  1 S    28.00154  -28.00154  -28.00154
  2 S   -28.00154   28.00154  -28.00154
  3 S    28.00154   28.00154  -28.00154
  4 S   -28.00154  -28.00154   28.00154
  5 S    28.00154  -28.00154   28.00154
  6 S   -28.00154   28.00154   28.00154
  7 S    28.00154   28.00154   28.00154

System changes: positions 

Initializing position-dependent things.

Density initialized from wave functions
              .---------------------------------------------------.  
             /|                                                   |  
            / |                                                   |  
           /  |                                                   |  
          /   |                                                   |  
         /    |                                                   |  
        /     |                                                   |  
       /      |                                                   |  
      /       |                                                   |  
     /        |                                                   |  
    /         |                                                   |  
   /          |                                                   |  
  /           |                                                   |  
 *            |                                                   |  
 |            |                                                   |  
 |            |                                                   |  
 |            |                                                   |  
 |            |                                                   |  
 |            |                 S    S                            |  
 |            |               S    S                              |  
 |            |                 S    S                            |  
 |            |               S    S                              |  
 |            |                                                   |  
 |            |                                                   |  
 |            |                                                   |  
 |            |                                                   |  
 |            .---------------------------------------------------.  
 |           /                                                   /   
 |          /                                                   /    
 |         /                                                   /     
 |        /                                                   /      
 |       /                                                   /       
 |      /                                                   /        
 |     /                                                   /         
 |    /                                                   /          
 |   /                                                   /           
 |  /                                                   /            
 | /                                                   /             
 |/                                                   /              
 *---------------------------------------------------*               

Positions:
   0 S      9.521388    9.521388    9.521388    ( 0.0000,  0.0000,  0.0000)
   1 S     11.478612    9.521388    9.521388    ( 0.0000,  0.0000,  0.0000)
   2 S      9.521388   11.478612    9.521388    ( 0.0000,  0.0000,  0.0000)
   3 S     11.478612   11.478612    9.521388    ( 0.0000,  0.0000,  0.0000)
   4 S      9.521388    9.521388   11.478612    ( 0.0000,  0.0000,  0.0000)
   5 S     11.478612    9.521388   11.478612    ( 0.0000,  0.0000,  0.0000)
   6 S      9.521388   11.478612   11.478612    ( 0.0000,  0.0000,  0.0000)
   7 S     11.478612   11.478612   11.478612    ( 0.0000,  0.0000,  0.0000)

Unit cell:
           periodic     x           y           z      points  spacing
  1. axis:    no    21.000000    0.000000    0.000000   104     0.2019
  2. axis:    no     0.000000   21.000000    0.000000   104     0.2019
  3. axis:    no     0.000000    0.000000   21.000000   104     0.2019

  Lengths:  21.000000  21.000000  21.000000
  Angles:   90.000000  90.000000  90.000000

Effective grid spacing dv^(1/3) = 0.2019

     iter     time        total  log10-change:
                         energy  eigst   dens
iter:   1 23:05:02    17.820218       c
iter:   2 23:05:05    18.024395       c -1.49
iter:   3 23:05:08    18.208245       c -1.64
iter:   4 23:05:12    18.210411       c -2.58
iter:   5 23:05:15    18.210415c      c -3.80
iter:   6 23:05:18    18.210416c      c -4.13c

Converged after 6 iterations.

Dipole moment: (-0.000000, -0.000000, -0.000000) |e|*Ang

Energy contributions relative to reference atoms: (reference = -86860.959180)

Kinetic:       +356.602186
Potential:     -274.145208
External:        +0.000000
XC:             -63.891307
Entropy (-ST):   +0.000000
Local:           -0.355255
--------------------------
Free energy:    +18.210416
Extrapolated:   +18.210416

 Band  Eigenvalues  Occupancy
    0    -33.34899    2.00000
    1    -27.71766    2.00000
    2    -27.71766    2.00000
    3    -27.71766    2.00000
    4    -21.58379    2.00000
    5    -21.58379    2.00000
    6    -21.58379    2.00000
    7    -17.19801    2.00000
    8    -17.19801    2.00000
    9    -14.55887    2.00000
   10    -14.09755    2.00000
   11    -14.09755    2.00000
   12    -14.09755    2.00000
   13    -13.99327    2.00000
   14    -11.58804    2.00000
   15    -11.58804    2.00000
   16    -11.58804    2.00000
   17     -9.23119    2.00000
   18     -9.23119    2.00000
   19     -9.23119    2.00000
   20     -7.74906    2.00000
   21     -7.74906    2.00000
   22     -7.74906    2.00000
   23     -4.18406    2.00000
   24     -4.18406    0.00000
   25     -4.18406    0.00000
   26     -4.05099    0.00000
   27     -4.05099    0.00000
   28     -4.05099    0.00000
   29     -0.81461    0.00000
   30     -0.81461    0.00000
   31     -0.41075    0.00000

Fermi level: -4.18406

Gap: 0.000 eV
Transition (v -> c):
  (s=0, k=0, n=23, [0.00, 0.00, 0.00]) -> (s=0, k=0, n=24, [0.00, 0.00, 0.00])

Forces in eV/Ang:
  0 S   -13.75768  -13.75768  -13.75768
  1 S    13.75768  -13.75768  -13.75768
  2 S   -13.75768   13.75768  -13.75768
  3 S    13.75768   13.75768  -13.75768
  4 S   -13.75768  -13.75768   13.75768
  5 S    13.75768  -13.75768   13.75768
  6 S   -13.75768   13.75768   13.75768
  7 S    13.75768   13.75768   13.75768

System changes: positions 

Initializing position-dependent things.

Density initialized from wave functions
              .---------------------------------------------------.  
             /|                                                   |  
            / |                                                   |  
           /  |                                                   |  
          /   |                                                   |  
         /    |                                                   |  
        /     |                                                   |  
       /      |                                                   |  
      /       |                                                   |  
     /        |                                                   |  
    /         |                                                   |  
   /          |                                                   |  
  /           |                                                   |  
 *            |                                                   |  
 |            |                                                   |  
 |            |                                                   |  
 |            |                                                   |  
 |            |                                                   |  
 |            |                 S    S                            |  
 |            |               S    S                              |  
 |            |                 S    S                            |  
 |            |               S    S                              |  
 |            |                                                   |  
 |            |                                                   |  
 |            |                                                   |  
 |            |                                                   |  
 |            .---------------------------------------------------.  
 |           /                                                   /   
 |          /                                                   /    
 |         /                                                   /     
 |        /                                                   /      
 |       /                                                   /       
 |      /                                                   /        
 |     /                                                   /         
 |    /                                                   /          
 |   /                                                   /           
 |  /                                                   /            
 | /                                                   /             
 |/                                                   /              
 *---------------------------------------------------*               

Positions:
   0 S      9.425058    9.425058    9.425058    ( 0.0000,  0.0000,  0.0000)
   1 S     11.574942    9.425058    9.425058    ( 0.0000,  0.0000,  0.0000)
   2 S      9.425058   11.574942    9.425058    ( 0.0000,  0.0000,  0.0000)
   3 S     11.574942   11.574942    9.425058    ( 0.0000,  0.0000,  0.0000)
   4 S      9.425058    9.425058   11.574942    ( 0.0000,  0.0000,  0.0000)
   5 S     11.574942    9.425058   11.574942    ( 0.0000,  0.0000,  0.0000)
   6 S      9.425058   11.574942   11.574942    ( 0.0000,  0.0000,  0.0000)
   7 S     11.574942   11.574942   11.574942    ( 0.0000,  0.0000,  0.0000)

Unit cell:
           periodic     x           y           z      points  spacing
  1. axis:    no    21.000000    0.000000    0.000000   104     0.2019
  2. axis:    no     0.000000   21.000000    0.000000   104     0.2019
  3. axis:    no     0.000000    0.000000   21.000000   104     0.2019

  Lengths:  21.000000  21.000000  21.000000
  Angles:   90.000000  90.000000  90.000000

Effective grid spacing dv^(1/3) = 0.2019

     iter     time        total  log10-change:
                         energy  eigst   dens
iter:   1 23:05:22    -4.676488       c
iter:   2 23:05:25    -4.592873       c -1.56
iter:   3 23:05:29    -4.502516       c -1.69
iter:   4 23:05:32    -4.501182       c -2.66
iter:   5 23:05:35    -4.501179c      c -3.87
iter:   6 23:05:39    -4.501179c      c -4.06c

Converged after 6 iterations.

Dipole moment: (-0.000000, 0.000000, 0.000000) |e|*Ang

Energy contributions relative to reference atoms: (reference = -86860.959180)

Kinetic:       +205.837248
Potential:     -167.952908
External:        +0.000000
XC:             -42.373396
Entropy (-ST):   +0.000000
Local:           -0.012123
--------------------------
Free energy:     -4.501179
Extrapolated:    -4.501179

 Band  Eigenvalues  Occupancy
    0    -27.16810    2.00000
    1    -23.43215    2.00000
    2    -23.43215    2.00000
    3    -23.43215    2.00000
    4    -19.41244    2.00000
    5    -19.41244    2.00000
    6    -19.41244    2.00000
    7    -14.80607    2.00000
    8    -14.38608    2.00000
    9    -14.38608    2.00000
   10    -12.78824    2.00000
   11    -12.12708    2.00000
   12    -12.12708    2.00000
   13    -12.12708    2.00000
   14    -10.65291    2.00000
   15    -10.65291    2.00000
   16    -10.65291    2.00000
   17     -8.96028    2.00000
   18     -8.96028    2.00000
   19     -8.96028    2.00000
   20     -6.95027    2.00000
   21     -6.95027    2.00000
   22     -6.95027    2.00000
   23     -4.46921    2.00000
   24     -4.46921    0.00000
   25     -4.46921    0.00000
   26     -4.45248    0.00000
   27     -4.45248    0.00000
   28     -4.45248    0.00000
   29     -2.21835    0.00000
   30     -2.21835    0.00000
   31     -2.04253    0.00000

Fermi level: -4.46921

Gap: 0.000 eV
Transition (v -> c):
  (s=0, k=0, n=23, [0.00, 0.00, 0.00]) -> (s=0, k=0, n=24, [0.00, 0.00, 0.00])

Forces in eV/Ang:
  0 S    -6.64937   -6.64937   -6.64937
  1 S     6.64937   -6.64937   -6.64937
  2 S    -6.64937    6.64937   -6.64937
  3 S     6.64937    6.64937   -6.64937
  4 S    -6.64937   -6.64937    6.64937
  5 S     6.64937   -6.64937    6.64937
  6 S    -6.64937    6.64937    6.64937
  7 S     6.64937    6.64937    6.64937

System changes: positions 

Initializing position-dependent things.

Density initialized from wave functions
              .---------------------------------------------------.  
             /|                                                   |  
            / |                                                   |  
           /  |                                                   |  
          /   |                                                   |  
         /    |                                                   |  
        /     |                                                   |  
       /      |                                                   |  
      /       |                                                   |  
     /        |                                                   |  
    /         |                                                   |  
   /          |                                                   |  
  /           |                                                   |  
 *            |                                                   |  
 |            |                                                   |  
 |            |                                                   |  
 |            |                                                   |  
 |            |                S     S                            |  
 |            |                                                   |  
 |            |               S     S                             |  
 |            |                S     S                            |  
 |            |                                                   |  
 |            |               S     S                             |  
 |            |                                                   |  
 |            |                                                   |  
 |            |                                                   |  
 |            .---------------------------------------------------.  
 |           /                                                   /   
 |          /                                                   /    
 |         /                                                   /     
 |        /                                                   /      
 |       /                                                   /       
 |      /                                                   /        
 |     /                                                   /         
 |    /                                                   /          
 |   /                                                   /           
 |  /                                                   /            
 | /                                                   /             
 |/                                                   /              
 *---------------------------------------------------*               

Positions:
   0 S      9.334948    9.334948    9.334948    ( 0.0000,  0.0000,  0.0000)
   1 S     11.665052    9.334948    9.334948    ( 0.0000,  0.0000,  0.0000)
   2 S      9.334948   11.665052    9.334948    ( 0.0000,  0.0000,  0.0000)
   3 S     11.665052   11.665052    9.334948    ( 0.0000,  0.0000,  0.0000)
   4 S      9.334948    9.334948   11.665052    ( 0.0000,  0.0000,  0.0000)
   5 S     11.665052    9.334948   11.665052    ( 0.0000,  0.0000,  0.0000)
   6 S      9.334948   11.665052   11.665052    ( 0.0000,  0.0000,  0.0000)
   7 S     11.665052   11.665052   11.665052    ( 0.0000,  0.0000,  0.0000)

Unit cell:
           periodic     x           y           z      points  spacing
  1. axis:    no    21.000000    0.000000    0.000000   104     0.2019
  2. axis:    no     0.000000   21.000000    0.000000   104     0.2019
  3. axis:    no     0.000000    0.000000   21.000000   104     0.2019

  Lengths:  21.000000  21.000000  21.000000
  Angles:   90.000000  90.000000  90.000000

Effective grid spacing dv^(1/3) = 0.2019

     iter     time        total  log10-change:
                         energy  eigst   dens
iter:   1 23:05:42   -14.276006       c
iter:   2 23:05:45   -14.242953       c -1.68
iter:   3 23:05:49   -14.202352       c -1.81
iter:   4 23:05:52   -14.202208       c -3.20
iter:   5 23:05:55   -14.202206c      c -4.11c

Converged after 5 iterations.

Dipole moment: (-0.000000, 0.000000, 0.000000) |e|*Ang

Energy contributions relative to reference atoms: (reference = -86860.959180)

Kinetic:       +100.729540
Potential:      -87.665248
External:        +0.000000
XC:             -27.456389
Entropy (-ST):   +0.000000
Local:           +0.189890
--------------------------
Free energy:    -14.202206
Extrapolated:   -14.202206

 Band  Eigenvalues  Occupancy
    0    -23.66090    2.00000
    1    -21.06083    2.00000
    2    -21.06083    2.00000
    3    -21.06083    2.00000
    4    -18.33390    2.00000
    5    -18.33390    2.00000
    6    -18.33390    2.00000
    7    -15.40279    2.00000
    8    -12.46517    2.00000
    9    -12.46517    2.00000
   10    -11.53909    2.00000
   11    -10.77095    2.00000
   12    -10.77095    2.00000
   13    -10.77095    2.00000
   14     -9.95962    2.00000
   15     -9.95962    2.00000
   16     -9.95962    2.00000
   17     -8.66242    2.00000
   18     -8.66242    2.00000
   19     -8.66242    2.00000
   20     -6.57566    2.00000
   21     -6.57566    2.00000
   22     -6.57566    2.00000
   23     -4.89127    2.00000
   24     -4.89127    0.00000
   25     -4.89127    0.00000
   26     -4.77740    0.00000
   27     -4.77740    0.00000
   28     -4.77740    0.00000
   29     -3.26859    0.00000
   30     -3.24192    0.00000
   31     -3.24192    0.00000

Fermi level: -4.89127

Gap: 0.000 eV
Transition (v -> c):
  (s=0, k=0, n=23, [0.00, 0.00, 0.00]) -> (s=0, k=0, n=24, [0.00, 0.00, 0.00])

Forces in eV/Ang:
  0 S    -2.74444   -2.74444   -2.74444
  1 S     2.74444   -2.74444   -2.74444
  2 S    -2.74444    2.74444   -2.74444
  3 S     2.74444    2.74444   -2.74444
  4 S    -2.74444   -2.74444    2.74444
  5 S     2.74444   -2.74444    2.74444
  6 S    -2.74444    2.74444    2.74444
  7 S     2.74444    2.74444    2.74444

System changes: positions 

Initializing position-dependent things.

Density initialized from wave functions
              .---------------------------------------------------.  
             /|                                                   |  
            / |                                                   |  
           /  |                                                   |  
          /   |                                                   |  
         /    |                                                   |  
        /     |                                                   |  
       /      |                                                   |  
      /       |                                                   |  
     /        |                                                   |  
    /         |                                                   |  
   /          |                                                   |  
  /           |                                                   |  
 *            |                                                   |  
 |            |                                                   |  
 |            |                                                   |  
 |            |                                                   |  
 |            |                S     S                            |  
 |            |                                                   |  
 |            |               S     S                             |  
 |            |                S     S                            |  
 |            |                                                   |  
 |            |               S     S                             |  
 |            |                                                   |  
 |            |                                                   |  
 |            |                                                   |  
 |            .---------------------------------------------------.  
 |           /                                                   /   
 |          /                                                   /    
 |         /                                                   /     
 |        /                                                   /      
 |       /                                                   /       
 |      /                                                   /        
 |     /                                                   /         
 |    /                                                   /          
 |   /                                                   /           
 |  /                                                   /            
 | /                                                   /             
 |/                                                   /              
 *---------------------------------------------------*               

Positions:
   0 S      9.271616    9.271616    9.271616    ( 0.0000,  0.0000,  0.0000)
   1 S     11.728384    9.271616    9.271616    ( 0.0000,  0.0000,  0.0000)
   2 S      9.271616   11.728384    9.271616    ( 0.0000,  0.0000,  0.0000)
   3 S     11.728384   11.728384    9.271616    ( 0.0000,  0.0000,  0.0000)
   4 S      9.271616    9.271616   11.728384    ( 0.0000,  0.0000,  0.0000)
   5 S     11.728384    9.271616   11.728384    ( 0.0000,  0.0000,  0.0000)
   6 S      9.271616   11.728384   11.728384    ( 0.0000,  0.0000,  0.0000)
   7 S     11.728384   11.728384   11.728384    ( 0.0000,  0.0000,  0.0000)

Unit cell:
           periodic     x           y           z      points  spacing
  1. axis:    no    21.000000    0.000000    0.000000   104     0.2019
  2. axis:    no     0.000000   21.000000    0.000000   104     0.2019
  3. axis:    no     0.000000    0.000000   21.000000   104     0.2019

  Lengths:  21.000000  21.000000  21.000000
  Angles:   90.000000  90.000000  90.000000

Effective grid spacing dv^(1/3) = 0.2019

     iter     time        total  log10-change:
                         energy  eigst   dens
iter:   1 23:05:59   -17.070401       c
iter:   2 23:06:02   -17.057880       c -1.90
iter:   3 23:06:06   -17.042936       c -2.03
iter:   4 23:06:09   -17.042809c      c -3.17
iter:   5 23:06:12   -17.042808c      c -4.24c

Converged after 5 iterations.

Dipole moment: (-0.000000, -0.000000, -0.000000) |e|*Ang

Energy contributions relative to reference atoms: (reference = -86860.959180)

Kinetic:        +47.256562
Potential:      -45.363305
External:        +0.000000
XC:             -19.193655
Entropy (-ST):   +0.000000
Local:           +0.257590
--------------------------
Free energy:    -17.042808
Extrapolated:   -17.042808

 Band  Eigenvalues  Occupancy
    0    -21.96181    2.00000
    1    -19.96209    2.00000
    2    -19.96209    2.00000
    3    -19.96209    2.00000
    4    -17.90539    2.00000
    5    -17.90539    2.00000
    6    -17.90539    2.00000
    7    -15.77111    2.00000
    8    -11.44168    2.00000
    9    -11.44168    2.00000
   10    -10.83325    2.00000
   11    -10.05965    2.00000
   12    -10.05965    2.00000
   13    -10.05965    2.00000
   14     -9.55256    2.00000
   15     -9.55256    2.00000
   16     -9.55256    2.00000
   17     -8.46576    2.00000
   18     -8.46576    2.00000
   19     -8.46576    2.00000
   20     -6.46244    2.00000
   21     -6.46244    2.00000
   22     -6.46244    2.00000
   23     -5.16747    2.00000
   24     -5.16747    0.00000
   25     -5.16747    0.00000
   26     -5.04395    0.00000
   27     -5.04395    0.00000
   28     -5.04395    0.00000
   29     -3.93089    0.00000
   30     -3.85712    0.00000
   31     -3.85712    0.00000

Fermi level: -5.16747

Gap: 0.000 eV
Transition (v -> c):
  (s=0, k=0, n=23, [0.00, 0.00, 0.00]) -> (s=0, k=0, n=24, [0.00, 0.00, 0.00])

Forces in eV/Ang:
  0 S    -1.10458   -1.10458   -1.10458
  1 S     1.10458   -1.10458   -1.10458
  2 S    -1.10458    1.10458   -1.10458
  3 S     1.10458    1.10458   -1.10458
  4 S    -1.10458   -1.10458    1.10458
  5 S     1.10458   -1.10458    1.10458
  6 S    -1.10458    1.10458    1.10458
  7 S     1.10458    1.10458    1.10458

System changes: positions 

Initializing position-dependent things.

Density initialized from wave functions
              .---------------------------------------------------.  
             /|                                                   |  
            / |                                                   |  
           /  |                                                   |  
          /   |                                                   |  
         /    |                                                   |  
        /     |                                                   |  
       /      |                                                   |  
      /       |                                                   |  
     /        |                                                   |  
    /         |                                                   |  
   /          |                                                   |  
  /           |                                                   |  
 *            |                                                   |  
 |            |                                                   |  
 |            |                                                   |  
 |            |                                                   |  
 |            |                S     S                            |  
 |            |                                                   |  
 |            |               S     S                             |  
 |            |                S     S                            |  
 |            |                                                   |  
 |            |               S     S                             |  
 |            |                                                   |  
 |            |                                                   |  
 |            |                                                   |  
 |            .---------------------------------------------------.  
 |           /                                                   /   
 |          /                                                   /    
 |         /                                                   /     
 |        /                                                   /      
 |       /                                                   /       
 |      /                                                   /        
 |     /                                                   /         
 |    /                                                   /          
 |   /                                                   /           
 |  /                                                   /            
 | /                                                   /             
 |/                                                   /              
 *---------------------------------------------------*               

Positions:
   0 S      9.228958    9.228958    9.228958    ( 0.0000,  0.0000,  0.0000)
   1 S     11.771042    9.228958    9.228958    ( 0.0000,  0.0000,  0.0000)
   2 S      9.228958   11.771042    9.228958    ( 0.0000,  0.0000,  0.0000)
   3 S     11.771042   11.771042    9.228958    ( 0.0000,  0.0000,  0.0000)
   4 S      9.228958    9.228958   11.771042    ( 0.0000,  0.0000,  0.0000)
   5 S     11.771042    9.228958   11.771042    ( 0.0000,  0.0000,  0.0000)
   6 S      9.228958   11.771042   11.771042    ( 0.0000,  0.0000,  0.0000)
   7 S     11.771042   11.771042   11.771042    ( 0.0000,  0.0000,  0.0000)

Unit cell:
           periodic     x           y           z      points  spacing
  1. axis:    no    21.000000    0.000000    0.000000   104     0.2019
  2. axis:    no     0.000000   21.000000    0.000000   104     0.2019
  3. axis:    no     0.000000    0.000000   21.000000   104     0.2019

  Lengths:  21.000000  21.000000  21.000000
  Angles:   90.000000  90.000000  90.000000

Effective grid spacing dv^(1/3) = 0.2019

     iter     time        total  log10-change:
                         energy  eigst   dens
iter:   1 23:06:16   -17.792449       c
iter:   2 23:06:19   -17.786876       c -2.11
iter:   3 23:06:23   -17.780744c      c -2.24
iter:   4 23:06:26   -17.780625c      c -3.21
iter:   5 23:06:29   -17.780625c      c -4.39c

Converged after 5 iterations.

Dipole moment: (-0.000000, 0.000000, 0.000000) |e|*Ang

Energy contributions relative to reference atoms: (reference = -86860.959180)

Kinetic:        +18.929488
Potential:      -22.477765
External:        +0.000000
XC:             -14.525604
Entropy (-ST):   +0.000000
Local:           +0.293256
--------------------------
Free energy:    -17.780625
Extrapolated:   -17.780625

 Band  Eigenvalues  Occupancy
    0    -21.08320    2.00000
    1    -19.41365    2.00000
    2    -19.41365    2.00000
    3    -19.41365    2.00000
    4    -17.71828    2.00000
    5    -17.71828    2.00000
    6    -17.71828    2.00000
    7    -15.99121    2.00000
    8    -10.87102    2.00000
    9    -10.87102    2.00000
   10    -10.41998    2.00000
   11     -9.66653    2.00000
   12     -9.66653    2.00000
   13     -9.66653    2.00000
   14     -9.30506    2.00000
   15     -9.30506    2.00000
   16     -9.30506    2.00000
   17     -8.33835    2.00000
   18     -8.33835    2.00000
   19     -8.33835    2.00000
   20     -6.42915    2.00000
   21     -6.42915    2.00000
   22     -6.42915    2.00000
   23     -5.34198    2.00000
   24     -5.34198    0.00000
   25     -5.34198    0.00000
   26     -5.22277    0.00000
   27     -5.22277    0.00000
   28     -5.22277    0.00000
   29     -4.30954    0.00000
   30     -4.22422    0.00000
   31     -4.22422    0.00000

Fermi level: -5.34198

Gap: 0.000 eV
Transition (v -> c):
  (s=0, k=0, n=23, [0.00, 0.00, 0.00]) -> (s=0, k=0, n=24, [0.00, 0.00, 0.00])

Forces in eV/Ang:
  0 S    -0.37396   -0.37396   -0.37396
  1 S     0.37396   -0.37396   -0.37396
  2 S    -0.37396    0.37396   -0.37396
  3 S     0.37396    0.37396   -0.37396
  4 S    -0.37396   -0.37396    0.37396
  5 S     0.37396   -0.37396    0.37396
  6 S    -0.37396    0.37396    0.37396
  7 S     0.37396    0.37396    0.37396

System changes: positions 

Initializing position-dependent things.

Density initialized from wave functions
              .---------------------------------------------------.  
             /|                                                   |  
            / |                                                   |  
           /  |                                                   |  
          /   |                                                   |  
         /    |                                                   |  
        /     |                                                   |  
       /      |                                                   |  
      /       |                                                   |  
     /        |                                                   |  
    /         |                                                   |  
   /          |                                                   |  
  /           |                                                   |  
 *            |                                                   |  
 |            |                                                   |  
 |            |                                                   |  
 |            |                                                   |  
 |            |                S      S                           |  
 |            |                                                   |  
 |            |              S      S                             |  
 |            |                S      S                           |  
 |            |                                                   |  
 |            |              S      S                             |  
 |            |                                                   |  
 |            |                                                   |  
 |            |                                                   |  
 |            .---------------------------------------------------.  
 |           /                                                   /   
 |          /                                                   /    
 |         /                                                   /     
 |        /                                                   /      
 |       /                                                   /       
 |      /                                                   /        
 |     /                                                   /         
 |    /                                                   /          
 |   /                                                   /           
 |  /                                                   /            
 | /                                                   /             
 |/                                                   /              
 *---------------------------------------------------*               

Positions:
   0 S      9.207124    9.207124    9.207124    ( 0.0000,  0.0000,  0.0000)
   1 S     11.792876    9.207124    9.207124    ( 0.0000,  0.0000,  0.0000)
   2 S      9.207124   11.792876    9.207124    ( 0.0000,  0.0000,  0.0000)
   3 S     11.792876   11.792876    9.207124    ( 0.0000,  0.0000,  0.0000)
   4 S      9.207124    9.207124   11.792876    ( 0.0000,  0.0000,  0.0000)
   5 S     11.792876    9.207124   11.792876    ( 0.0000,  0.0000,  0.0000)
   6 S      9.207124   11.792876   11.792876    ( 0.0000,  0.0000,  0.0000)
   7 S     11.792876   11.792876   11.792876    ( 0.0000,  0.0000,  0.0000)

Unit cell:
           periodic     x           y           z      points  spacing
  1. axis:    no    21.000000    0.000000    0.000000   104     0.2019
  2. axis:    no     0.000000   21.000000    0.000000   104     0.2019
  3. axis:    no     0.000000    0.000000   21.000000   104     0.2019

  Lengths:  21.000000  21.000000  21.000000
  Angles:   90.000000  90.000000  90.000000

Effective grid spacing dv^(1/3) = 0.2019

     iter     time        total  log10-change:
                         energy  eigst   dens
iter:   1 23:06:33   -17.899165       c
iter:   2 23:06:36   -17.897664       c -2.43
iter:   3 23:06:39   -17.896095c      c -2.56
iter:   4 23:06:43   -17.896058c      c -3.44
iter:   5 23:06:46   -17.896058c      c -4.71c

Converged after 5 iterations.

Dipole moment: (-0.000000, 0.000000, 0.000000) |e|*Ang

Energy contributions relative to reference atoms: (reference = -86860.959180)

Kinetic:         +6.546794
Potential:      -12.354258
External:        +0.000000
XC:             -12.394304
Entropy (-ST):   +0.000000
Local:           +0.305710
--------------------------
Free energy:    -17.896058
Extrapolated:   -17.896058

 Band  Eigenvalues  Occupancy
    0    -20.70192    2.00000
    1    -19.18092    2.00000
    2    -19.18092    2.00000
    3    -19.18092    2.00000
    4    -17.64593    2.00000
    5    -17.64593    2.00000
    6    -17.64593    2.00000
    7    -16.09522    2.00000
    8    -10.61009    2.00000
    9    -10.61009    2.00000
   10    -10.22317    2.00000
   11     -9.48855    2.00000
   12     -9.48855    2.00000
   13     -9.48855    2.00000
   14     -9.18522    2.00000
   15     -9.18522    2.00000
   16     -9.18522    2.00000
   17     -8.27686    2.00000
   18     -8.27686    2.00000
   19     -8.27686    2.00000
   20     -6.42361    2.00000
   21     -6.42361    2.00000
   22     -6.42361    2.00000
   23     -5.42676    2.00000
   24     -5.42676    0.00000
   25     -5.42676    0.00000
   26     -5.31349    0.00000
   27     -5.31349    0.00000
   28     -5.31349    0.00000
   29     -4.48326    0.00000
   30     -4.39763    0.00000
   31     -4.39763    0.00000

Fermi level: -5.42676

Gap: 0.000 eV
Transition (v -> c):
  (s=0, k=0, n=23, [0.00, 0.00, 0.00]) -> (s=0, k=0, n=24, [0.00, 0.00, 0.00])

Forces in eV/Ang:
  0 S    -0.06316   -0.06316   -0.06316
  1 S     0.06316   -0.06316   -0.06316
  2 S    -0.06316    0.06316   -0.06316
  3 S     0.06316    0.06316   -0.06316
  4 S    -0.06316   -0.06316    0.06316
  5 S     0.06316   -0.06316    0.06316
  6 S    -0.06316    0.06316    0.06316
  7 S     0.06316    0.06316    0.06316

System changes: positions 

Initializing position-dependent things.

Density initialized from wave functions
              .---------------------------------------------------.  
             /|                                                   |  
            / |                                                   |  
           /  |                                                   |  
          /   |                                                   |  
         /    |                                                   |  
        /     |                                                   |  
       /      |                                                   |  
      /       |                                                   |  
     /        |                                                   |  
    /         |                                                   |  
   /          |                                                   |  
  /           |                                                   |  
 *            |                                                   |  
 |            |                                                   |  
 |            |                                                   |  
 |            |                                                   |  
 |            |                S      S                           |  
 |            |                                                   |  
 |            |              S      S                             |  
 |            |                S      S                           |  
 |            |                                                   |  
 |            |              S      S                             |  
 |            |                                                   |  
 |            |                                                   |  
 |            |                                                   |  
 |            .---------------------------------------------------.  
 |           /                                                   /   
 |          /                                                   /    
 |         /                                                   /     
 |        /                                                   /      
 |       /                                                   /       
 |      /                                                   /        
 |     /                                                   /         
 |    /                                                   /          
 |   /                                                   /           
 |  /                                                   /            
 | /                                                   /             
 |/                                                   /              
 *---------------------------------------------------*               

Positions:
   0 S      9.202687    9.202687    9.202687    ( 0.0000,  0.0000,  0.0000)
   1 S     11.797313    9.202687    9.202687    ( 0.0000,  0.0000,  0.0000)
   2 S      9.202687   11.797313    9.202687    ( 0.0000,  0.0000,  0.0000)
   3 S     11.797313   11.797313    9.202687    ( 0.0000,  0.0000,  0.0000)
   4 S      9.202687    9.202687   11.797313    ( 0.0000,  0.0000,  0.0000)
   5 S     11.797313    9.202687   11.797313    ( 0.0000,  0.0000,  0.0000)
   6 S      9.202687   11.797313   11.797313    ( 0.0000,  0.0000,  0.0000)
   7 S     11.797313   11.797313   11.797313    ( 0.0000,  0.0000,  0.0000)

Unit cell:
           periodic     x           y           z      points  spacing
  1. axis:    no    21.000000    0.000000    0.000000   104     0.2019
  2. axis:    no     0.000000   21.000000    0.000000   104     0.2019
  3. axis:    no     0.000000    0.000000   21.000000   104     0.2019

  Lengths:  21.000000  21.000000  21.000000
  Angles:   90.000000  90.000000  90.000000

Effective grid spacing dv^(1/3) = 0.2019

     iter     time        total  log10-change:
                         energy  eigst   dens
iter:   1 23:06:50   -17.902586       c
iter:   2 23:06:53   -17.902522       c -3.13
iter:   3 23:06:57   -17.902457c      c -3.26
iter:   4 23:07:00   -17.902455c      c -4.11c

Converged after 4 iterations.

Dipole moment: (-0.000000, 0.000000, -0.000000) |e|*Ang

Energy contributions relative to reference atoms: (reference = -86860.959180)

Kinetic:         +4.183996
Potential:      -10.413744
External:        +0.000000
XC:             -11.980699
Entropy (-ST):   +0.000000
Local:           +0.307991
--------------------------
Free energy:    -17.902455
Extrapolated:   -17.902455

 Band  Eigenvalues  Occupancy
    0    -20.62943    2.00000
    1    -19.13708    2.00000
    2    -19.13708    2.00000
    3    -19.13708    2.00000
    4    -17.63293    2.00000
    5    -17.63293    2.00000
    6    -17.63293    2.00000
    7    -16.11564    2.00000
    8    -10.55948    2.00000
    9    -10.55948    2.00000
   10    -10.18439    2.00000
   11     -9.45416    2.00000
   12     -9.45416    2.00000
   13     -9.45416    2.00000
   14     -9.16139    2.00000
   15     -9.16139    2.00000
   16     -9.16139    2.00000
   17     -8.26465    2.00000
   18     -8.26465    2.00000
   19     -8.26465    2.00000
   20     -6.42316    2.00000
   21     -6.42316    2.00000
   22     -6.42316    2.00000
   23     -5.44379    2.00000
   24     -5.44379    0.00000
   25     -5.44379    0.00000
   26     -5.33180    0.00000
   27     -5.33180    0.00000
   28     -5.33180    0.00000
   29     -4.51666    0.00000
   30     -4.43177    0.00000
   31     -4.43177    0.00000

Fermi level: -5.44379

Gap: 0.000 eV
Transition (v -> c):
  (s=0, k=0, n=23, [0.00, 0.00, 0.00]) -> (s=0, k=0, n=24, [0.00, 0.00, 0.00])

Forces in eV/Ang:
  0 S    -0.06258   -0.06258   -0.06258
  1 S     0.06258   -0.06258   -0.06258
  2 S    -0.06258    0.06258   -0.06258
  3 S     0.06258    0.06258   -0.06258
  4 S    -0.06258   -0.06258    0.06258
  5 S     0.06258   -0.06258    0.06258
  6 S    -0.06258    0.06258    0.06258
  7 S     0.06258    0.06258    0.06258

System changes: positions 

Initializing position-dependent things.

Density initialized from wave functions
              .---------------------------------------------------.  
             /|                                                   |  
            / |                                                   |  
           /  |                                                   |  
          /   |                                                   |  
         /    |                                                   |  
        /     |                                                   |  
       /      |                                                   |  
      /       |                                                   |  
     /        |                                                   |  
    /         |                                                   |  
   /          |                                                   |  
  /           |                                                   |  
 *            |                                                   |  
 |            |                                                   |  
 |            |                                                   |  
 |            |                                                   |  
 |            |                S      S                           |  
 |            |                                                   |  
 |            |              S      S                             |  
 |            |                S      S                           |  
 |            |                                                   |  
 |            |              S      S                             |  
 |            |                                                   |  
 |            |                                                   |  
 |            |                                                   |  
 |            .---------------------------------------------------.  
 |           /                                                   /   
 |          /                                                   /    
 |         /                                                   /     
 |        /                                                   /      
 |       /                                                   /       
 |      /                                                   /        
 |     /                                                   /         
 |    /                                                   /          
 |   /                                                   /           
 |  /                                                   /            
 | /                                                   /             
 |/                                                   /              
 *---------------------------------------------------*               

Positions:
   0 S      9.087216    9.087216    9.087216    ( 0.0000,  0.0000,  0.0000)
   1 S     11.912784    9.087216    9.087216    ( 0.0000,  0.0000,  0.0000)
   2 S      9.087216   11.912784    9.087216    ( 0.0000,  0.0000,  0.0000)
   3 S     11.912784   11.912784    9.087216    ( 0.0000,  0.0000,  0.0000)
   4 S      9.087216    9.087216   11.912784    ( 0.0000,  0.0000,  0.0000)
   5 S     11.912784    9.087216   11.912784    ( 0.0000,  0.0000,  0.0000)
   6 S      9.087216   11.912784   11.912784    ( 0.0000,  0.0000,  0.0000)
   7 S     11.912784   11.912784   11.912784    ( 0.0000,  0.0000,  0.0000)

Unit cell:
           periodic     x           y           z      points  spacing
  1. axis:    no    21.000000    0.000000    0.000000   104     0.2019
  2. axis:    no     0.000000   21.000000    0.000000   104     0.2019
  3. axis:    no     0.000000    0.000000   21.000000   104     0.2019

  Lengths:  21.000000  21.000000  21.000000
  Angles:   90.000000  90.000000  90.000000

Effective grid spacing dv^(1/3) = 0.2019

     iter     time        total  log10-change:
                         energy  eigst   dens
iter:   1 23:07:03   -16.606536       c
iter:   2 23:07:07   -16.576003       c -1.80
iter:   3 23:07:10   -16.545321       c -1.93
iter:   4 23:07:13   -16.544658       c -2.76
iter:   5 23:07:17   -16.544656c      c -3.91
iter:   6 23:07:20   -16.544656c      c -4.17c

Converged after 6 iterations.

Dipole moment: (0.000000, 0.000000, 0.000000) |e|*Ang

Energy contributions relative to reference atoms: (reference = -86860.959180)

Kinetic:        -40.163577
Potential:      +26.685785
External:        +0.000000
XC:              -3.416697
Entropy (-ST):   +0.000000
Local:           +0.349831
--------------------------
Free energy:    -16.544656
Extrapolated:   -16.544656

 Band  Eigenvalues  Occupancy
    0    -19.22749    2.00000
    1    -18.32442    2.00000
    2    -18.32442    2.00000
    3    -18.32442    2.00000
    4    -17.43770    2.00000
    5    -17.43770    2.00000
    6    -17.43770    2.00000
    7    -16.56822    2.00000
    8     -9.48620    2.00000
    9     -9.48620    2.00000
   10     -9.32078    2.00000
   11     -8.73001    2.00000
   12     -8.73001    2.00000
   13     -8.73001    2.00000
   14     -8.61505    2.00000
   15     -8.61505    2.00000
   16     -8.61505    2.00000
   17     -7.97752    2.00000
   18     -7.97752    2.00000
   19     -7.97752    2.00000
   20     -6.47260    2.00000
   21     -6.47260    2.00000
   22     -6.47260    2.00000
   23     -5.84939    2.00000
   24     -5.84939    0.00000
   25     -5.84939    0.00000
   26     -5.77273    0.00000
   27     -5.77273    0.00000
   28     -5.77273    0.00000
   29     -5.26315    0.00000
   30     -5.19939    0.00000
   31     -5.19939    0.00000

Fermi level: -5.84939

Gap: 0.000 eV
Transition (v -> c):
  (s=0, k=0, n=23, [0.00, 0.00, 0.00]) -> (s=0, k=0, n=24, [0.00, 0.00, 0.00])

Forces in eV/Ang:
  0 S     0.85226    0.85226    0.85226
  1 S    -0.85226    0.85226    0.85226
  2 S     0.85226   -0.85226    0.85226
  3 S    -0.85226   -0.85226    0.85226
  4 S     0.85226    0.85226   -0.85226
  5 S    -0.85226    0.85226   -0.85226
  6 S     0.85226   -0.85226   -0.85226
  7 S    -0.85226   -0.85226   -0.85226

System changes: positions 

Initializing position-dependent things.

Density initialized from wave functions
              .---------------------------------------------------.  
             /|                                                   |  
            / |                                                   |  
           /  |                                                   |  
          /   |                                                   |  
         /    |                                                   |  
        /     |                                                   |  
       /      |                                                   |  
      /       |                                                   |  
     /        |                                                   |  
    /         |                                                   |  
   /          |                                                   |  
  /           |                                                   |  
 *            |                                                   |  
 |            |                                                   |  
 |            |                                                   |  
 |            |                                                   |  
 |            |                S      S                           |  
 |            |                                                   |  
 |            |              S      S                             |  
 |            |                S      S                           |  
 |            |                                                   |  
 |            |              S      S                             |  
 |            |                                                   |  
 |            |                                                   |  
 |            |                                                   |  
 |            .---------------------------------------------------.  
 |           /                                                   /   
 |          /                                                   /    
 |         /                                                   /     
 |        /                                                   /      
 |       /                                                   /       
 |      /                                                   /        
 |     /                                                   /         
 |    /                                                   /          
 |   /                                                   /           
 |  /                                                   /            
 | /                                                   /             
 |/                                                   /              
 *---------------------------------------------------*               

Positions:
   0 S      9.194788    9.194788    9.194788    ( 0.0000,  0.0000,  0.0000)
   1 S     11.805212    9.194788    9.194788    ( 0.0000,  0.0000,  0.0000)
   2 S      9.194788   11.805212    9.194788    ( 0.0000,  0.0000,  0.0000)
   3 S     11.805212   11.805212    9.194788    ( 0.0000,  0.0000,  0.0000)
   4 S      9.194788    9.194788   11.805212    ( 0.0000,  0.0000,  0.0000)
   5 S     11.805212    9.194788   11.805212    ( 0.0000,  0.0000,  0.0000)
   6 S      9.194788   11.805212   11.805212    ( 0.0000,  0.0000,  0.0000)
   7 S     11.805212   11.805212   11.805212    ( 0.0000,  0.0000,  0.0000)

Unit cell:
           periodic     x           y           z      points  spacing
  1. axis:    no    21.000000    0.000000    0.000000   104     0.2019
  2. axis:    no     0.000000   21.000000    0.000000   104     0.2019
  3. axis:    no     0.000000    0.000000   21.000000   104     0.2019

  Lengths:  21.000000  21.000000  21.000000
  Angles:   90.000000  90.000000  90.000000

Effective grid spacing dv^(1/3) = 0.2019

     iter     time        total  log10-change:
                         energy  eigst   dens
iter:   1 23:07:23   -18.000022       c
iter:   2 23:07:27   -17.955354       c -1.77
iter:   3 23:07:30   -17.912914       c -1.91
iter:   4 23:07:33   -17.911981       c -2.67
iter:   5 23:07:37   -17.911973c      c -3.86
iter:   6 23:07:40   -17.911973c      c -4.28c

Converged after 6 iterations.

Dipole moment: (-0.000000, 0.000000, -0.000000) |e|*Ang

Energy contributions relative to reference atoms: (reference = -86860.959180)

Kinetic:         +0.107135
Potential:       -7.069619
External:        +0.000000
XC:             -11.260851
Entropy (-ST):   +0.000000
Local:           +0.311363
--------------------------
Free energy:    -17.911973
Extrapolated:   -17.911973

 Band  Eigenvalues  Occupancy
    0    -20.50444    2.00000
    1    -19.06190    2.00000
    2    -19.06190    2.00000
    3    -19.06190    2.00000
    4    -17.61122    2.00000
    5    -17.61122    2.00000
    6    -17.61122    2.00000
    7    -16.15151    2.00000
    8    -10.47142    2.00000
    9    -10.47142    2.00000
   10    -10.11639    2.00000
   11     -9.39443    2.00000
   12     -9.39443    2.00000
   13     -9.39443    2.00000
   14     -9.11949    2.00000
   15     -9.11949    2.00000
   16     -9.11949    2.00000
   17     -8.24320    2.00000
   18     -8.24320    2.00000
   19     -8.24320    2.00000
   20     -6.42297    2.00000
   21     -6.42297    2.00000
   22     -6.42297    2.00000
   23     -5.47388    2.00000
   24     -5.47388    0.00000
   25     -5.47388    0.00000
   26     -5.36431    0.00000
   27     -5.36431    0.00000
   28     -5.36431    0.00000
   29     -4.57492    0.00000
   30     -4.49171    0.00000
   31     -4.49171    0.00000

Fermi level: -5.47388

Gap: 0.000 eV
Transition (v -> c):
  (s=0, k=0, n=23, [0.00, 0.00, 0.00]) -> (s=0, k=0, n=24, [0.00, 0.00, 0.00])

Forces in eV/Ang:
  0 S    -0.01295   -0.01295   -0.01295
  1 S     0.01295   -0.01295   -0.01295
  2 S    -0.01295    0.01295   -0.01295
  3 S     0.01295    0.01295   -0.01295
  4 S    -0.01295   -0.01295    0.01295
  5 S     0.01295   -0.01295    0.01295
  6 S    -0.01295    0.01295    0.01295
  7 S     0.01295    0.01295    0.01295

Timing:                                       incl.     excl.
--------------------------------------------------------------------
Basic WFS set positions:                      0.081     0.078   0.0% |
 Redistribute:                                0.002     0.002   0.0% |
Basis functions set positions:                0.164     0.164   0.1% |
Forces:                                       3.396     1.120   0.4% |
 LCAO forces:                                 2.276     0.003   0.0% |
  Atomic Hamiltonian force:                   0.010     0.010   0.0% |
  Initial:                                    0.001     0.000   0.0% |
   Get density matrix:                        0.001     0.001   0.0% |
  Paw correction:                             0.009     0.009   0.0% |
  Potential:                                  1.834     1.834   0.6% |
  TCI derivative:                             0.419     0.419   0.1% |
  Wait for sum:                               0.000     0.000   0.0% |
LCAO WFS Initialize:                         43.922     0.075   0.0% |
 Density initialized from wave functions:    14.514     0.907   0.3% |
  Calculate density matrix:                   0.001     0.001   0.0% |
  Construct density:                          0.249     0.249   0.1% |
  Symmetrize density:                        13.357    13.357   4.3% |-|
 Hamiltonian:                                29.333     0.001   0.0% |
  Atomic:                                     2.167     0.009   0.0% |
   XC Correction:                             2.158     2.158   0.7% |
  Calculate atomic Hamiltonians:              0.046     0.046   0.0% |
  Communicate:                                0.000     0.000   0.0% |
  Hartree integrate/restrict:                 1.108     1.108   0.4% |
  Initialize Hamiltonian:                     0.000     0.000   0.0% |
  Poisson:                                    8.542     0.367   0.1% |
   Communicate from 1D:                       0.776     0.776   0.2% |
   Communicate from 2D:                       0.777     0.777   0.2% |
   Communicate to 1D:                         0.855     0.855   0.3% |
   Communicate to 2D:                         0.779     0.779   0.2% |
   FFT 1D:                                    1.681     1.681   0.5% |
   FFT 2D:                                    3.307     3.307   1.1% |
  XC 3D grid:                                17.161    17.161   5.5% |-|
  vbar:                                       0.308     0.308   0.1% |
P tci:                                        0.121     0.121   0.0% |
Redistribute:                                 0.001     0.001   0.0% |
SCF-cycle:                                  259.983     0.115   0.0% |
 Density:                                    92.822     0.002   0.0% |
  Atomic density matrices:                    0.161     0.161   0.1% |
  Mix:                                        8.516     8.516   2.7% ||
  Multipole moments:                          0.009     0.009   0.0% |
  Normalize:                                  0.040     0.040   0.0% |
  Pseudo density:                            84.095     0.211   0.1% |
   Calculate density matrix:                  0.006     0.006   0.0% |
   Construct density:                         3.031     3.031   1.0% |
   Symmetrize density:                       80.847    80.847  25.8% |---------|
 Hamiltonian:                               163.477     0.005   0.0% |
  Atomic:                                    11.723     0.048   0.0% |
   XC Correction:                            11.675    11.675   3.7% ||
  Calculate atomic Hamiltonians:              0.251     0.251   0.1% |
  Communicate:                                0.000     0.000   0.0% |
  Hartree integrate/restrict:                 6.335     6.335   2.0% ||
  Poisson:                                   47.746     2.000   0.6% |
   Communicate from 1D:                       4.340     4.340   1.4% ||
   Communicate from 2D:                       4.344     4.344   1.4% ||
   Communicate to 1D:                         4.794     4.794   1.5% ||
   Communicate to 2D:                         4.345     4.345   1.4% ||
   FFT 1D:                                    9.377     9.377   3.0% ||
   FFT 2D:                                   18.546    18.546   5.9% |-|
  XC 3D grid:                                95.699    95.699  30.6% |-----------|
  vbar:                                       1.716     1.716   0.5% |
 LCAO eigensolver:                            3.570     0.005   0.0% |
  Calculate projections:                      0.006     0.006   0.0% |
  DenseAtomicCorrection:                      0.018     0.018   0.0% |
  Distribute overlap matrix:                  0.001     0.001   0.0% |
  Orbital Layouts:                            0.846     0.846   0.3% |
  Potential matrix:                           2.694     2.694   0.9% |
ST tci:                                       0.027     0.027   0.0% |
Set symmetry:                                 0.007     0.007   0.0% |
TCI: Evaluate splines:                        0.010     0.010   0.0% |
mktci:                                        0.014     0.014   0.0% |
Other:                                        5.247     5.247   1.7% ||
--------------------------------------------------------------------
Total:                                                312.974 100.0%

Memory usage: 1.24 GiB
Date: Mon Feb  6 23:07:40 2023
