
  ___ ___ ___ _ _ _  
 |   |   |_  | | | | 
 | | | | | . | | | | 
 |__ |  _|___|_____|  22.1.0
 |___|_|             

User:   ameerracle@ameer-Mint-B450-AORUS-PRO-WIFI
Date:   Mon Feb  6 20:45:22 2023
Arch:   x86_64
Pid:    14295
Python: 3.10.6
gpaw:   /usr/lib/python3/dist-packages/gpaw
_gpaw:  /usr/lib/python3/dist-packages/_gpaw.cpython-310-x86_64-linux-gnu.so
ase:    /usr/lib/python3/dist-packages/ase (version 3.22.1)
numpy:  /home/ameerracle/.local/lib/python3.10/site-packages/numpy (version 1.23.5)
scipy:  /home/ameerracle/.local/lib/python3.10/site-packages/scipy (version 1.10.0)
libxc:  5.1.7
units:  Angstrom and eV
cores: 1
OpenMP: False
OMP_NUM_THREADS: 1

Input parameters:
  kpts: [8 8 1]
  mode: {ecut: 400.0,
         name: pw}
  xc: PBE

System changes: positions, numbers, cell, pbc, initial_charges, initial_magmoms 

Initialize ...

Ti-setup:
  name: Titanium
  id: d282db07e62ae71292040bf25b25ccdd
  Z: 22.0
  valence: 12
  core: 10
  charge: 0.0
  file: /usr/share/gpaw-setups/Ti.PBE.gz
  compensation charges: gauss, rc=0.38, lmax=2
  cutoffs: 2.23(filt), 1.02(core),
  valence states:
                energy  radius
    3s(2.00)   -62.623   1.270
    4s(2.00)    -4.466   1.270
    3p(6.00)   -38.862   1.058
    4p(0.00)    -1.466   1.058
    3d(2.00)    -4.258   1.058
    *d          22.953   1.058

  Using partial waves for Ti as LCAO basis

Reference energy: -371584.228507

Spin-paired calculation

Convergence criteria:
 Maximum [total energy] change in last 3 cyles: 0.0005 eV / electron
 Maximum integral of absolute [dens]ity change: 0.0001 electrons / valence electron
 Maximum integral of absolute [eigenst]ate change: 4e-08 eV^2 / valence electron
 Maximum number of scf [iter]ations: 333
 (Square brackets indicate name in SCF output, whereas a 'c' in
 the SCF output indicates the quantity has converged.)

Symmetries present (total): 24

  ( 1  0  0)  ( 1  0  0)  ( 1  0  0)  ( 1  0  0)  ( 1 -1  0)  ( 1 -1  0)
  ( 1 -1  0)  ( 1 -1  0)  ( 0  1  0)  ( 0  1  0)  ( 1  0  0)  ( 1  0  0)
  ( 0  0  1)  ( 0  0 -1)  ( 0  0  1)  ( 0  0 -1)  ( 0  0  1)  ( 0  0 -1)

  ( 1 -1  0)  ( 1 -1  0)  ( 0  1  0)  ( 0  1  0)  ( 0  1  0)  ( 0  1  0)
  ( 0 -1  0)  ( 0 -1  0)  ( 1  0  0)  ( 1  0  0)  (-1  1  0)  (-1  1  0)
  ( 0  0  1)  ( 0  0 -1)  ( 0  0  1)  ( 0  0 -1)  ( 0  0  1)  ( 0  0 -1)

  ( 0 -1  0)  ( 0 -1  0)  ( 0 -1  0)  ( 0 -1  0)  (-1  1  0)  (-1  1  0)
  ( 1 -1  0)  ( 1 -1  0)  (-1  0  0)  (-1  0  0)  ( 0  1  0)  ( 0  1  0)
  ( 0  0  1)  ( 0  0 -1)  ( 0  0  1)  ( 0  0 -1)  ( 0  0  1)  ( 0  0 -1)

  (-1  1  0)  (-1  1  0)  (-1  0  0)  (-1  0  0)  (-1  0  0)  (-1  0  0)
  (-1  0  0)  (-1  0  0)  ( 0 -1  0)  ( 0 -1  0)  (-1  1  0)  (-1  1  0)
  ( 0  0  1)  ( 0  0 -1)  ( 0  0  1)  ( 0  0 -1)  ( 0  0  1)  ( 0  0 -1)
Note: your k-points are not as symmetric as your crystal!

64 k-points: 8 x 8 x 1 Monkhorst-Pack grid
20 k-points in the irreducible part of the Brillouin zone
       k-points in crystal coordinates                weights
   0:     0.06250000   -0.06250000    0.00000000          2/64
   1:     0.06250000    0.06250000    0.00000000          2/64
   2:     0.18750000   -0.18750000    0.00000000          2/64
   3:     0.18750000   -0.06250000    0.00000000          4/64
   4:     0.18750000    0.06250000    0.00000000          4/64
   5:     0.18750000    0.18750000    0.00000000          2/64
   6:     0.31250000   -0.31250000    0.00000000          2/64
   7:     0.31250000   -0.18750000    0.00000000          4/64
   8:     0.31250000   -0.06250000    0.00000000          4/64
   9:     0.31250000    0.06250000    0.00000000          4/64
          ...
  19:     0.43750000    0.43750000    0.00000000          2/64

Wave functions: Plane wave expansion
  Cutoff energy: 400.000 eV
  Number of coefficients (min, max): 21884, 21991
  Pulay-stress correction: 0.000000 eV/Ang^3 (de/decut=0.000000)
  Using FFTW library
  ScaLapack parameters: grid=1x1, blocksize=None
  Wavefunction extrapolation:
    Improved wavefunction reuse through dual PAW basis 

Occupation numbers: Fermi-Dirac: width=0.1000 eV
 

Eigensolver
   Davidson(niter=2) 

Densities:
  Coarse grid: 40*40*96 grid
  Fine grid: 80*80*192 grid
  Total Charge: 0.000000 

Density mixing:
  Method: separate
  Backend: pulay
  Linear mixing parameter: 0.05
  Mixing with 5 old densities
  Damping of long wave oscillations: 50 

Hamiltonian:
  XC and Coulomb potentials evaluated on a 80*80*192 grid
  Using the PBE Exchange-Correlation functional
  External potential:
    NoExternalPotential
 

XC parameters: PBE with 2 nearest neighbor stencil

Memory estimate:
  Process memory now: 4367.03 MiB
  Calculator: 1008.51 MiB
    Density: 65.36 MiB
      Arrays: 30.47 MiB
      Localized functions: 23.17 MiB
      Mixer: 11.72 MiB
    Hamiltonian: 20.39 MiB
      Arrays: 19.92 MiB
      XC: 0.00 MiB
      Poisson: 0.00 MiB
      vbar: 0.47 MiB
    Wavefunctions: 922.75 MiB
      Arrays psit_nG: 805.33 MiB
      Eigensolver: 44.15 MiB
      Projections: 10.55 MiB
      Projectors: 50.15 MiB
      PW-descriptor: 12.57 MiB

Total number of cores used: 1

Number of atoms: 16
Number of atomic orbitals: 208
Number of bands in calculation: 120
Number of valence electrons: 192
Bands to converge: occupied

... initialized

Initializing position-dependent things.

Density initialized from atomic densities
Creating initial wave functions:
  120 bands from LCAO basis set

                                           
                                           
                                           
                                           
                  Ti    Ti   Ti   Ti       
               Ti   Ti   Ti   Ti           
           Ti   Ti   Ti   Ti               
       Ti   Ti   Ti    Ti                  
                                           
                                           
                                           
                                           

Positions:
   0 Ti     0.000000    0.000000   10.000000    ( 0.0000,  0.0000,  0.0000)
   1 Ti     2.085965    0.000000   10.000000    ( 0.0000,  0.0000,  0.0000)
   2 Ti     4.171930    0.000000   10.000000    ( 0.0000,  0.0000,  0.0000)
   3 Ti     6.257895    0.000000   10.000000    ( 0.0000,  0.0000,  0.0000)
   4 Ti     1.042983    1.806499   10.000000    ( 0.0000,  0.0000,  0.0000)
   5 Ti     3.128948    1.806499   10.000000    ( 0.0000,  0.0000,  0.0000)
   6 Ti     5.214913    1.806499   10.000000    ( 0.0000,  0.0000,  0.0000)
   7 Ti     7.300878    1.806499   10.000000    ( 0.0000,  0.0000,  0.0000)
   8 Ti     2.085965    3.612997   10.000000    ( 0.0000,  0.0000,  0.0000)
   9 Ti     4.171930    3.612997   10.000000    ( 0.0000,  0.0000,  0.0000)
  10 Ti     6.257895    3.612997   10.000000    ( 0.0000,  0.0000,  0.0000)
  11 Ti     8.343860    3.612997   10.000000    ( 0.0000,  0.0000,  0.0000)
  12 Ti     3.128948    5.419496   10.000000    ( 0.0000,  0.0000,  0.0000)
  13 Ti     5.214913    5.419496   10.000000    ( 0.0000,  0.0000,  0.0000)
  14 Ti     7.300878    5.419496   10.000000    ( 0.0000,  0.0000,  0.0000)
  15 Ti     9.386843    5.419496   10.000000    ( 0.0000,  0.0000,  0.0000)

Unit cell:
           periodic     x           y           z      points  spacing
  1. axis:    yes    8.343860    0.000000    0.000000    40     0.1806
  2. axis:    yes    4.171930    7.225995    0.000000    40     0.1806
  3. axis:    no     0.000000    0.000000   20.000000    96     0.2083

  Lengths:   8.343860   8.343860  20.000000
  Angles:   90.000000  90.000000  60.000000

Effective grid spacing dv^(1/3) = 0.1987

     iter     time        total  log10-change:
                         energy  eigst   dens
iter:   1 20:47:25   -72.175526
iter:   2 20:48:20   -63.681176  -1.01  -0.93
iter:   3 20:49:16   -39.585144  +0.47  -0.97
iter:   4 20:50:13   -38.133874  -0.89  -1.55
iter:   5 20:51:10   -38.213011  -1.43  -1.54
iter:   6 20:52:05   -37.730756  -1.57  -1.76
iter:   7 20:53:02   -37.692103  -2.62  -2.04
iter:   8 20:53:58   -37.851020  -2.03  -2.20
iter:   9 20:54:54   -37.654589  -2.04  -2.19
iter:  10 20:55:50   -37.659805  -3.02  -2.55
iter:  11 20:56:46   -37.659063c -3.37  -3.01
iter:  12 20:57:41   -37.658451c -3.68  -2.98
iter:  13 20:58:37   -37.660752c -3.79  -2.98
iter:  14 20:59:32   -37.660321c -4.11  -3.22
iter:  15 21:00:29   -37.660067c -4.34  -3.30
iter:  16 21:01:24   -37.660179c -4.57  -3.36
iter:  17 21:02:20   -37.659177c -4.74  -3.42
iter:  18 21:03:17   -37.657381c -4.17  -3.58
iter:  19 21:04:14   -37.657613c -4.00  -3.69
iter:  20 21:05:11   -37.657577c -4.40  -3.68
iter:  21 21:06:07   -37.657002c -4.64  -3.64
iter:  22 21:07:04   -37.657467c -5.09  -3.48
iter:  23 21:08:00   -37.657567c -5.65  -3.59
iter:  24 21:08:57   -37.657619c -5.62  -3.58
iter:  25 21:09:54   -37.658227c -5.35  -3.80
iter:  26 21:10:50   -37.658171c -5.87  -4.10c
iter:  27 21:11:48   -37.658002c -6.14  -4.15c
iter:  28 21:12:45   -37.657724c -4.83  -4.18c
iter:  29 21:13:42   -37.657979c -3.83  -4.20c
iter:  30 21:14:39   -37.657574c -3.70  -4.29c
iter:  31 21:15:37   -37.657594c -3.57  -4.34c
iter:  32 21:16:34   -37.657748c -3.67  -4.31c
iter:  33 21:17:30   -37.657598c -3.77  -4.30c
iter:  34 21:18:25   -37.657535c -3.65  -4.22c
iter:  35 21:19:18   -37.657728c -3.68  -4.05c
iter:  36 21:20:12   -37.657573c -3.82  -3.98
iter:  37 21:21:06   -37.658058c -3.92  -3.77
iter:  38 21:21:59   -37.657914c -4.14  -3.87
iter:  39 21:22:52   -37.658012c -4.39  -3.78
iter:  40 21:23:46   -37.658442c -4.63  -3.78
iter:  41 21:24:39   -37.658539c -4.87  -3.97
iter:  42 21:25:33   -37.659028c -5.06  -3.99
iter:  43 21:26:26   -37.659298c -5.29  -4.23c
iter:  44 21:27:19   -37.659316c -5.55  -4.63c
iter:  45 21:28:13   -37.659252c -5.70  -4.69c
iter:  46 21:29:06   -37.659262c -5.95  -4.71c
iter:  47 21:30:00   -37.659327c -6.17  -4.72c
iter:  48 21:30:53   -37.659360c -6.39  -4.81c
iter:  49 21:31:48   -37.659369c -6.61  -4.94c
iter:  50 21:32:43   -37.659356c -6.85  -4.99c
iter:  51 21:33:37   -37.659336c -7.01  -5.03c
iter:  52 21:34:31   -37.659331c -7.26  -5.12c
iter:  53 21:35:26   -37.659305c -7.49c -5.18c

Converged after 53 iterations.

Dipole moment: (-0.000000, -0.000000, 0.000000) |e|*Ang

Energy contributions relative to reference atoms: (reference = -371584.228507)

Kinetic:       +413.836969
Potential:     -205.208964
External:        +0.000000
XC:            -242.057021
Entropy (-ST):   -0.585902
Local:           -3.937338
--------------------------
Free energy:    -37.952256
Extrapolated:   -37.659305

Showing only first 2 kpts
 Kpt  Band  Eigenvalues  Occupancy
  0    94     -2.30160    1.86433
  0    95     -2.08556    1.22609
  0    96     -2.08556    1.22606
  0    97     -2.07108    1.15636

  1    94     -2.20128    1.66883
  1    95     -2.12527    1.40413
  1    96     -2.12526    1.40410
  1    97     -1.95899    0.61764


Fermi level: -2.03955

No gap
